<?xml version="1.0"?>
<VTKFile type="UnstructuredGrid"  version="0.1"  >
<UnstructuredGrid>
<Piece  NumberOfPoints="40401" NumberOfCells="80000">
<Points>
<DataArray  type="Float64"  NumberOfComponents="3"  format="ascii">0 0 0  0.005 0 0  0.01 0 0  0.015 0 0  0.02 0 0  0.025 0 0  0.03 0 0  0.035 0 0  0.04 0 0  0.045 0 0  0.05 0 0  0.055 0 0  0.06 0 0  0.065 0 0  0.07000000000000001 0 0  0.075 0 0  0.08 0 0  0.08500000000000001 0 0  0.09 0 0  0.095 0 0  0.1 0 0  0.105 0 0  0.11 0 0  0.115 0 0  0.12 0 0  0.125 0 0  0.13 0 0  0.135 0 0  0.14 0 0  0.145 0 0  0.15 0 0  0.155 0 0  0.16 0 0  0.165 0 0  0.17 0 0  0.175 0 0  0.18 0 0  0.185 0 0  0.19 0 0  0.195 0 0  0.2 0 0  0.205 0 0  0.21 0 0  0.215 0 0  0.22 0 0  0.225 0 0  0.23 0 0  0.235 0 0  0.24 0 0  0.245 0 0  0.25 0 0  0.255 0 0  0.26 0 0  0.265 0 0  0.27 0 0  0.275 0 0  0.28 0 0  0.285 0 0  0.29 0 0  0.295 0 0  0.3 0 0  0.305 0 0  0.31 0 0  0.315 0 0  0.32 0 0  0.325 0 0  0.33 0 0  0.335 0 0  0.34 0 0  0.345 0 0  0.35 0 0  0.355 0 0  0.36 0 0  0.365 0 0  0.37 0 0  0.375 0 0  0.38 0 0  0.385 0 0  0.39 0 0  0.395 0 0  0.4 0 0  0.405 0 0  0.41 0 0  0.415 0 0  0.42 0 0  0.425 0 0  0.43 0 0  0.435 0 0  0.44 0 0  0.445 0 0  0.45 0 0  0.455 0 0  0.46 0 0  0.465 0 0  0.47 0 0  0.475 0 0  0.48 0 0  0.485 0 0  0.49 0 0  0.495 0 0  0.5 0 0  0.505 0 0  0.51 0 0  0.515 0 0  0.52 0 0  0.525 0 0  0.53 0 0  0.535 0 0  0.54 0 0  0.545 0 0  0.55 0 0  0.555 0 0  0.5600000000000001 0 0  0.5649999999999999 0 0  0.57 0 0  0.575 0 0  0.58 0 0  0.585 0 0  0.59 0 0  0.595 0 0  0.6 0 0  0.605 0 0  0.61 0 0  0.615 0 0  0.62 0 0  0.625 0 0  0.63 0 0  0.635 0 0  0.64 0 0  0.645 0 0  0.65 0 0  0.655 0 0  0.66 0 0  0.665 0 0  0.67 0 0  0.675 0 0  0.68 0 0  0.6850000000000001 0 0  0.6899999999999999 0 0  0.695 0 0  0.7 0 0  0.705 0 0  0.71 0 0  0.715 0 0  0.72 0 0  0.725 0 0  0.73 0 0  0.735 0 0  0.74 0 0  0.745 0 0  0.75 0 0  0.755 0 0  0.76 0 0  0.765 0 0  0.77 0 0  0.775 0 0  0.78 0 0  0.785 0 0  0.79 0 0  0.795 0 0  0.8 0 0  0.805 0 0  0.8100000000000001 0 0  0.8149999999999999 0 0  0.82 0 0  0.825 0 0  0.83 0 0  0.835 0 0  0.84 0 0  0.845 0 0  0.85 0 0  0.855 0 0  0.86 0 0  0.865 0 0  0.87 0 0  0.875 0 0  0.88 0 0  0.885 0 0  0.89 0 0  0.895 0 0  0.9 0 0  0.905 0 0  0.91 0 0  0.915 0 0  0.92 0 0  0.925 0 0  0.93 0 0  0.9350000000000001 0 0  0.9399999999999999 0 0  0.945 0 0  0.95 0 0  0.955 0 0  0.96 0 0  0.965 0 0  0.97 0 0  0.975 0 0  0.98 0 0  0.985 0 0  0.99 0 0  0.995 0 0  1 0 0  0 0.005 0  0.005 0.005 0  0.01 0.005 0  0.015 0.005 0  0.02 0.005 0  0.025 0.005 0  0.03 0.005 0  0.035 0.005 0  0.04 0.005 0  0.045 0.005 0  0.05 0.005 0  0.055 0.005 0  0.06 0.005 0  0.065 0.005 0  0.07000000000000001 0.005 0  0.075 0.005 0  0.08 0.005 0  0.08500000000000001 0.005 0  0.09 0.005 0  0.095 0.005 0  0.1 0.005 0  0.105 0.005 0  0.11 0.005 0  0.115 0.005 0  0.12 0.005 0  0.125 0.005 0  0.13 0.005 0  0.135 0.005 0  0.14 0.005 0  0.145 0.005 0  0.15 0.005 0  0.155 0.005 0  0.16 0.005 0  0.165 0.005 0  0.17 0.005 0  0.175 0.005 0  0.18 0.005 0  0.185 0.005 0  0.19 0.005 0  0.195 0.005 0  0.2 0.005 0  0.205 0.005 0  0.21 0.005 0  0.215 0.005 0  0.22 0.005 0  0.225 0.005 0  0.23 0.005 0  0.235 0.005 0  0.24 0.005 0  0.245 0.005 0  0.25 0.005 0  0.255 0.005 0  0.26 0.005 0  0.265 0.005 0  0.27 0.005 0  0.275 0.005 0  0.28 0.005 0  0.285 0.005 0  0.29 0.005 0  0.295 0.005 0  0.3 0.005 0  0.305 0.005 0  0.31 0.005 0  0.315 0.005 0  0.32 0.005 0  0.325 0.005 0  0.33 0.005 0  0.335 0.005 0  0.34 0.005 0  0.345 0.005 0  0.35 0.005 0  0.355 0.005 0  0.36 0.005 0  0.365 0.005 0  0.37 0.005 0  0.375 0.005 0  0.38 0.005 0  0.385 0.005 0  0.39 0.005 0  0.395 0.005 0  0.4 0.005 0  0.405 0.005 0  0.41 0.005 0  0.415 0.005 0  0.42 0.005 0  0.425 0.005 0  0.43 0.005 0  0.435 0.005 0  0.44 0.005 0  0.445 0.005 0  0.45 0.005 0  0.455 0.005 0  0.46 0.005 0  0.465 0.005 0  0.47 0.005 0  0.475 0.005 0  0.48 0.005 0  0.485 0.005 0  0.49 0.005 0  0.495 0.005 0  0.5 0.005 0  0.505 0.005 0  0.51 0.005 0  0.515 0.005 0  0.52 0.005 0  0.525 0.005 0  0.53 0.005 0  0.535 0.005 0  0.54 0.005 0  0.545 0.005 0  0.55 0.005 0  0.555 0.005 0  0.5600000000000001 0.005 0  0.5649999999999999 0.005 0  0.57 0.005 0  0.575 0.005 0  0.58 0.005 0  0.585 0.005 0  0.59 0.005 0  0.595 0.005 0  0.6 0.005 0  0.605 0.005 0  0.61 0.005 0  0.615 0.005 0  0.62 0.005 0  0.625 0.005 0  0.63 0.005 0  0.635 0.005 0  0.64 0.005 0  0.645 0.005 0  0.65 0.005 0  0.655 0.005 0  0.66 0.005 0  0.665 0.005 0  0.67 0.005 0  0.675 0.005 0  0.68 0.005 0  0.6850000000000001 0.005 0  0.6899999999999999 0.005 0  0.695 0.005 0  0.7 0.005 0  0.705 0.005 0  0.71 0.005 0  0.715 0.005 0  0.72 0.005 0  0.725 0.005 0  0.73 0.005 0  0.735 0.005 0  0.74 0.005 0  0.745 0.005 0  0.75 0.005 0  0.755 0.005 0  0.76 0.005 0  0.765 0.005 0  0.77 0.005 0  0.775 0.005 0  0.78 0.005 0  0.785 0.005 0  0.79 0.005 0  0.795 0.005 0  0.8 0.005 0  0.805 0.005 0  0.8100000000000001 0.005 0  0.8149999999999999 0.005 0  0.82 0.005 0  0.825 0.005 0  0.83 0.005 0  0.835 0.005 0  0.84 0.005 0  0.845 0.005 0  0.85 0.005 0  0.855 0.005 0  0.86 0.005 0  0.865 0.005 0  0.87 0.005 0  0.875 0.005 0  0.88 0.005 0  0.885 0.005 0  0.89 0.005 0  0.895 0.005 0  0.9 0.005 0  0.905 0.005 0  0.91 0.005 0  0.915 0.005 0  0.92 0.005 0  0.925 0.005 0  0.93 0.005 0  0.9350000000000001 0.005 0  0.9399999999999999 0.005 0  0.945 0.005 0  0.95 0.005 0  0.955 0.005 0  0.96 0.005 0  0.965 0.005 0  0.97 0.005 0  0.975 0.005 0  0.98 0.005 0  0.985 0.005 0  0.99 0.005 0  0.995 0.005 0  1 0.005 0  0 0.01 0  0.005 0.01 0  0.01 0.01 0  0.015 0.01 0  0.02 0.01 0  0.025 0.01 0  0.03 0.01 0  0.035 0.01 0  0.04 0.01 0  0.045 0.01 0  0.05 0.01 0  0.055 0.01 0  0.06 0.01 0  0.065 0.01 0  0.07000000000000001 0.01 0  0.075 0.01 0  0.08 0.01 0  0.08500000000000001 0.01 0  0.09 0.01 0  0.095 0.01 0  0.1 0.01 0  0.105 0.01 0  0.11 0.01 0  0.115 0.01 0  0.12 0.01 0  0.125 0.01 0  0.13 0.01 0  0.135 0.01 0  0.14 0.01 0  0.145 0.01 0  0.15 0.01 0  0.155 0.01 0  0.16 0.01 0  0.165 0.01 0  0.17 0.01 0  0.175 0.01 0  0.18 0.01 0  0.185 0.01 0  0.19 0.01 0  0.195 0.01 0  0.2 0.01 0  0.205 0.01 0  0.21 0.01 0  0.215 0.01 0  0.22 0.01 0  0.225 0.01 0  0.23 0.01 0  0.235 0.01 0  0.24 0.01 0  0.245 0.01 0  0.25 0.01 0  0.255 0.01 0  0.26 0.01 0  0.265 0.01 0  0.27 0.01 0  0.275 0.01 0  0.28 0.01 0  0.285 0.01 0  0.29 0.01 0  0.295 0.01 0  0.3 0.01 0  0.305 0.01 0  0.31 0.01 0  0.315 0.01 0  0.32 0.01 0  0.325 0.01 0  0.33 0.01 0  0.335 0.01 0  0.34 0.01 0  0.345 0.01 0  0.35 0.01 0  0.355 0.01 0  0.36 0.01 0  0.365 0.01 0  0.37 0.01 0  0.375 0.01 0  0.38 0.01 0  0.385 0.01 0  0.39 0.01 0  0.395 0.01 0  0.4 0.01 0  0.405 0.01 0  0.41 0.01 0  0.415 0.01 0  0.42 0.01 0  0.425 0.01 0  0.43 0.01 0  0.435 0.01 0  0.44 0.01 0  0.445 0.01 0  0.45 0.01 0  0.455 0.01 0  0.46 0.01 0  0.465 0.01 0  0.47 0.01 0  0.475 0.01 0  0.48 0.01 0  0.485 0.01 0  0.49 0.01 0  0.495 0.01 0  0.5 0.01 0  0.505 0.01 0  0.51 0.01 0  0.515 0.01 0  0.52 0.01 0  0.525 0.01 0  0.53 0.01 0  0.535 0.01 0  0.54 0.01 0  0.545 0.01 0  0.55 0.01 0  0.555 0.01 0  0.5600000000000001 0.01 0  0.5649999999999999 0.01 0  0.57 0.01 0  0.575 0.01 0  0.58 0.01 0  0.585 0.01 0  0.59 0.01 0  0.595 0.01 0  0.6 0.01 0  0.605 0.01 0  0.61 0.01 0  0.615 0.01 0  0.62 0.01 0  0.625 0.01 0  0.63 0.01 0  0.635 0.01 0  0.64 0.01 0  0.645 0.01 0  0.65 0.01 0  0.655 0.01 0  0.66 0.01 0  0.665 0.01 0  0.67 0.01 0  0.675 0.01 0  0.68 0.01 0  0.6850000000000001 0.01 0  0.6899999999999999 0.01 0  0.695 0.01 0  0.7 0.01 0  0.705 0.01 0  0.71 0.01 0  0.715 0.01 0  0.72 0.01 0  0.725 0.01 0  0.73 0.01 0  0.735 0.01 0  0.74 0.01 0  0.745 0.01 0  0.75 0.01 0  0.755 0.01 0  0.76 0.01 0  0.765 0.01 0  0.77 0.01 0  0.775 0.01 0  0.78 0.01 0  0.785 0.01 0  0.79 0.01 0  0.795 0.01 0  0.8 0.01 0  0.805 0.01 0  0.8100000000000001 0.01 0  0.8149999999999999 0.01 0  0.82 0.01 0  0.825 0.01 0  0.83 0.01 0  0.835 0.01 0  0.84 0.01 0  0.845 0.01 0  0.85 0.01 0  0.855 0.01 0  0.86 0.01 0  0.865 0.01 0  0.87 0.01 0  0.875 0.01 0  0.88 0.01 0  0.885 0.01 0  0.89 0.01 0  0.895 0.01 0  0.9 0.01 0  0.905 0.01 0  0.91 0.01 0  0.915 0.01 0  0.92 0.01 0  0.925 0.01 0  0.93 0.01 0  0.9350000000000001 0.01 0  0.9399999999999999 0.01 0  0.945 0.01 0  0.95 0.01 0  0.955 0.01 0  0.96 0.01 0  0.965 0.01 0  0.97 0.01 0  0.975 0.01 0  0.98 0.01 0  0.985 0.01 0  0.99 0.01 0  0.995 0.01 0  1 0.01 0  0 0.015 0  0.005 0.015 0  0.01 0.015 0  0.015 0.015 0  0.02 0.015 0  0.025 0.015 0  0.03 0.015 0  0.035 0.015 0  0.04 0.015 0  0.045 0.015 0  0.05 0.015 0  0.055 0.015 0  0.06 0.015 0  0.065 0.015 0  0.07000000000000001 0.015 0  0.075 0.015 0  0.08 0.015 0  0.08500000000000001 0.015 0  0.09 0.015 0  0.095 0.015 0  0.1 0.015 0  0.105 0.015 0  0.11 0.015 0  0.115 0.015 0  0.12 0.015 0  0.125 0.015 0  0.13 0.015 0  0.135 0.015 0  0.14 0.015 0  0.145 0.015 0  0.15 0.015 0  0.155 0.015 0  0.16 0.015 0  0.165 0.015 0  0.17 0.015 0  0.175 0.015 0  0.18 0.015 0  0.185 0.015 0  0.19 0.015 0  0.195 0.015 0  0.2 0.015 0  0.205 0.015 0  0.21 0.015 0  0.215 0.015 0  0.22 0.015 0  0.225 0.015 0  0.23 0.015 0  0.235 0.015 0  0.24 0.015 0  0.245 0.015 0  0.25 0.015 0  0.255 0.015 0  0.26 0.015 0  0.265 0.015 0  0.27 0.015 0  0.275 0.015 0  0.28 0.015 0  0.285 0.015 0  0.29 0.015 0  0.295 0.015 0  0.3 0.015 0  0.305 0.015 0  0.31 0.015 0  0.315 0.015 0  0.32 0.015 0  0.325 0.015 0  0.33 0.015 0  0.335 0.015 0  0.34 0.015 0  0.345 0.015 0  0.35 0.015 0  0.355 0.015 0  0.36 0.015 0  0.365 0.015 0  0.37 0.015 0  0.375 0.015 0  0.38 0.015 0  0.385 0.015 0  0.39 0.015 0  0.395 0.015 0  0.4 0.015 0  0.405 0.015 0  0.41 0.015 0  0.415 0.015 0  0.42 0.015 0  0.425 0.015 0  0.43 0.015 0  0.435 0.015 0  0.44 0.015 0  0.445 0.015 0  0.45 0.015 0  0.455 0.015 0  0.46 0.015 0  0.465 0.015 0  0.47 0.015 0  0.475 0.015 0  0.48 0.015 0  0.485 0.015 0  0.49 0.015 0  0.495 0.015 0  0.5 0.015 0  0.505 0.015 0  0.51 0.015 0  0.515 0.015 0  0.52 0.015 0  0.525 0.015 0  0.53 0.015 0  0.535 0.015 0  0.54 0.015 0  0.545 0.015 0  0.55 0.015 0  0.555 0.015 0  0.5600000000000001 0.015 0  0.
[...]
<PointData  Scalars="f_1099"> 
<DataArray  type="Float64"  Name="f_1099"  format="ascii">3.0367204609606057e+02  1.8879087394358714e+02  1.8715734181067089e+02  1.6730343634949347e+02  1.5925448452515482e+02  1.5849027277178712e+02  1.5229442603881657e+02  1.4805983283287557e+02  1.4750754283089253e+02  1.4454706600155225e+02  1.4156904909301645e+02  1.4124167501996854e+02  1.3966066417706284e+02  1.3728473939344917e+02  1.3711216856048372e+02  1.3627231107770473e+02  1.3424250592602090e+02  1.3417726319342339e+02  1.3379041157216295e+02  1.3198163867423818e+02  1.3199303455811818e+02  1.3190670283331568e+02  1.3024891871021501e+02  1.3031641161040753e+02  1.3044091282599950e+02  1.2889107110416222e+02  1.2900031492455571e+02  1.2927873708948863e+02  1.2780851506374680e+02  1.2794909080053503e+02  1.2834318073699768e+02  1.2693293780845688e+02  1.2709701465808067e+02  1.2757986770794878e+02  1.2621539946297200e+02  1.2639691354482764e+02  1.2694889621405146e+02  1.2561956796172146e+02  1.2581369920866391e+02  1.2642003696507784e+02  1.2511765052159619e+02  1.2532047789862480e+02  1.2596975790265596e+02  1.2468783219680090e+02  1.2489609945565793e+02  1.2557930335104709e+02  1.2431260040239636e+02  1.2452355262237209e+02  1.2523341030881627e+02  1.2397761286491863e+02  1.2418887967583906e+02  1.2491942490114248e+02  1.2367091119425081e+02  1.2388042161093448e+02  1.2462667863602758e+02  1.2338236127416047e+02  1.2358828045624180e+02  1.2434603828634302e+02  1.2310324665469537e+02  1.2330392821118723e+02  1.2406957480554910e+02  1.2282596770489168e+02  1.2301991724676755e+02  1.2379031573765688e+02  1.2254381549703032e+02  1.2272966248752654e+02  1.2350205742250341e+02  1.2225079957166389e+02  1.2242727541403259e+02  1.2319922085818268e+02  1.2194151528777962e+02  1.2210743619068187e+02  1.2287674002333161e+02  1.2161104078206202e+02  1.2176529435611513e+02  1.2252997476668737e+02  1.2125485646993567e+02  1.2139639129877497e+02  1.2215464262325104e+02  1.2086878201736364e+02  1.2099659965360341e+02  1.2174676548215183e+02  1.2044892710782432e+02  1.2056207609519552e+02  1.2130262813810266e+02  1.1999165332270812e+02  1.2008922495753113e+02  1.2081874655631374e+02  1.1949354517289925e+02  1.1957467080277280e+02  1.2029184426453230e+02  1.1895138884969919e+02  1.1901523857326879e+02  1.1971883572283637e+02  1.1836215766274623e+02  1.1840794034701361e+02  1.1909681585439826e+02  1.1772300343843933e+02  1.1774996801324720e+02  1.1842305517966713e+02  1.1703125339318017e+02  1.1703869141994046e+02  1.1769500020514320e+02  1.1628441219196611e+02  1.1627166173593963e+02  1.1691027888924340e+02  1.1548016906423956e+02  1.1544661993095407e+02  1.1606671115604215e+02  1.1461640999278039e+02  1.1456151041815838e+02  1.1516232455905727e+02  1.1369123511777831e+02  1.1361450003196782e+02  1.1419537532010830e+02  1.1270298162140625e+02  1.1260400263738156e+02  1.1316437508956732e+02  1.1165025247771322e+02  1.1152870978910980e+02  1.1206812389361215e+02  1.1053195157609500e+02  1.1038762798679105e+02  1.1090574986511646e+02  1.0934732585849528e+02  1.0918012320808283e+02  1.0967675649245285e+02  1.0809601525501287e+02  1.0790597355293727e+02  1.0838107827756100e+02  1.0677811136466859e+02  1.0656543100190210e+02  1.0701914587006054e+02  1.0539422601368649e+02  1.0515929348693743e+02  1.0559196195110194e+02  1.0394557103926432e+02  1.0368898870017107e+02  1.0410118937747171e+02  1.0243405089864122e+02  1.0215667133287278e+02  1.0254925337946985e+02  1.0086237000129063e+02  1.0056533575207608e+02  1.0093945993847875e+02  9.9234157014898074e+01  9.8918946496114771e+01  9.9276132865733629e+01  9.7554108812889467e+01  9.7222589411630395e+01  9.7564772570170049e+01  9.5828157225089498e+01  9.5482646774621642e+01  9.5812240049406725e+01  9.4063662325652047e+01  9.3707000339705814e+01  9.4026970267274450e+01  9.2269636647791728e+01  9.1905266937788355e+01  9.2219219775003396e+01  9.0457005420578781e+01  9.0089071955634907e+01  9.0401354141058533e+01  8.8638908613975033e+01  8.8272366683661858e+01  8.8588181347563022e+01  8.6831051075609011e+01  8.6471795881410330e+01  8.6797337482625451e+01  8.5052106961179149e+01  8.4707121488633717e+01  8.5049730188192328e+01  8.3324183200339917e+01  8.3001706189688065e+01  8.3370042125781950e+01  8.1673342318939248e+01  8.1383054594921830e+01  8.1787288890052110e+01  8.0130174822492421e+01  7.9883396965755466e+01  8.0335409716556356e+01  7.8730391447956677e+01  7.8540275813148114e+01  7.9053838088626662e+01  7.7515363487207225e+01  7.7397032367792008e+01  7.7987889945457908e+01  7.6532330211061208e+01  7.6502669223924016e+01  7.7187960475047987e+01  7.5832365628854660e+01  7.5907673666591990e+01  7.6701961223245419e+01  7.5458332012085037e+01  7.5647139612186791e+01  7.6555452738312070e+01  7.5425227993478416e+01  7.5717048285706113e+01  7.6705002843030712e+01  7.5609952935847346e+01  7.5866613215633322e+01  2.0257008293390444e+02  1.9850924484112659e+02  1.7739760332877921e+02  1.6985698623664467e+02  1.6912082706184944e+02  1.5947401866855239e+02  1.5413778992642349e+02  1.5334399161125481e+02  1.4916994835655419e+02  1.4566860497375538e+02  1.4516609831210818e+02  1.4298315620568823e+02  1.4031252135467091e+02  1.4001892351423785e+02  1.3882581268500869e+02  1.3660914783749351e+02  1.3645674712535566e+02  1.3583990932289475e+02  1.3390270057042775e+02  1.3384865668638562e+02  1.3360169880998293e+02  1.3185046308331061e+02  1.3186713722317836e+02  1.3187366802118427e+02  1.3025294606237350e+02  1.3032168011012502e+02  1.3051016050591750e+02  1.2898448559499352e+02  1.2909211920138495e+02  1.2941565910075093e+02  1.2796100555382441e+02  1.2809789201452170e+02  1.2852418063327215e+02  1.2712351148348885e+02  1.2728234077052367e+02  1.2778819951647382e+02  1.2642897332334168e+02  1.2660404421593391e+02  1.2717228396302983e+02  1.2584497481318259e+02  1.2603172729142607e+02  1.2664923815108949e+02  1.2534641411706899e+02  1.2554111865756477e+02  1.2619765778798599e+02  1.2491338380365026e+02  1.2511292873446128e+02  1.2580032275019697e+02  1.2452976043832409e+02  1.2473150258759551e+02  1.2544310632356850e+02  1.2418223796957915e+02  1.2438389536462540e+02  1.2511421470824794e+02  1.2385964806945265e+02  1.2405922130586798e+02  1.2480364422687178e+02  1.2355247149281803e+02  1.2374818511634523e+02  1.2450278595182670e+02  1.2325247990593552e+02  1.2344273806790166e+02  1.2420413258120051e+02  1.2295246890387995e+02  1.2313582140504707e+02  1.2390105778510301e+02  1.2264605611134051e+02  1.2282117215264057e+02  1.2358764794935107e+02  1.2232752664191737e+02  1.2249317440276745e+02  1.2325857251540583e+02  1.2199171365503250e+02  1.2214674436208664e+02  1.2290898326376046e+02  1.2163390538674025e+02  1.2177724091345046e+02  1.2253443568745600e+02  1.2124977250647839e+02  1.2138039580739928e+02  1.2213082753109546e+02  1.2083531136337187e+02  1.2095225923919507e+02  1.2169435092027672e+02  1.2038679989517109e+02  1.2048915772218952e+02  1.2122145547151693e+02  1.1990076383882506e+02  1.1998766200200168e+02  1.2070882047018623e+02  1.1937395151522689e+02  1.1944456336193994e+02  1.2015333472320522e+02  1.1880331593080534e+02  1.1885685712562972e+02  1.1955208307982895e+02  1.1818600329543631e+02  1.1822173250512775e+02  1.1890233891550591e+02  1.1751934733252797e+02  1.1753656821245055e+02  1.1820156210715905e+02  1.1680086897654159e+02  1.1679893346490820e+02  1.1744740222141940e+02  1.1602828123256914e+02  1.1600659419160898e+02  1.1663770679450836e+02  1.1519949912554699e+02  1.1515752439693387e+02  1.1577053472309916e+02  1.1431265479773876e+02  1.1424992277117296e+02  1.1484417490847090e+02  1.1336611793803594e+02  1.1328223475828626e+02  1.1385717041479455e+02  1.1235852183992876e+02  1.1225318041120909e+02  1.1280834851723193e+02  1.1128879550329908e+02  1.1116178847993125e+02  1.1169685713197731e+02  1.1015620231036756e+02  1.1000743730168885e+02  1.1052220824353172e+02  1.0896038593529958e+02  1.0878990318983415e+02  1.0928432907673616e+02  1.0770142427936167e+02  1.0750941716162508e+02  1.0798362190514601e+02  1.0637989237716606e+02  1.0616673099876733e+02  1.0662103354998725e+02  1.0499693538357289e+02  1.0476319381101240e+02  1.0519813580267501e+02  1.0355435294086489e+02  1.0330084046563729e+02  1.0371721820723626e+02  1.0205469643258965e+02  1.0178249346418976e+02  1.0218139485999201e+02  1.0050138086233976e+02  1.0021188008291396e+02  1.0059472712809996e+02  9.8898813339817096e+01  9.8593766843336510e+01  9.8962364436354534e+01  9.7252540407142092e+01  9.6934113622027610e+01  9.7290705506883910e+01  9.5569416655006791e+01  9.5240249907425621e+01  9.5587582602188860e+01  9.3857797206539502e+01  9.3521075781066784e+01  9.3862471322633880e+01  9.2127756549015714e+01  9.1787289986192761e+01  9.2126728135250389e+01  9.0391335626632625e+01  9.0051646623370530e+01  9.0393856673131978e+01  8.8662817561882378e+01  8.8329239963062250e+01  8.8679801147107426e+01  8.6959028867430106e+01  8.6637812332428510e+01  8.7003259390381288e+01  8.5299655561393450e+01  8.4998070541260418e+01  8.5385995988942227e+01  8.3707548310008050e+01  8.3433977003320464e+01  8.3853111656074731e+01  8.2208960312352417e+01  8.1972943918134447e+01  8.2433178478675615e+01  8.0833605194648129e+01  8.0645791862991203e+01  8.1158073636923262e+01  7.9614338350758999e+01  7.9486251433756621e+01  8.0062278377377837e+01  7.8586245460362250e+01  7.8529861739182820e+01  7.9181653115801069e+01  7.7785438961600974e+01  7.7813026016748722e+01  7.8553053741807133e+01  7.7249491630717003e+01  7.7373999484547738e+01  7.8213964947092549e+01  7.7010883354532425e+01  7.7232592397822444e+01  7.8160525647916842e+01  7.7029260964870602e+01  7.7299591708704327e+01  7.8236423623944503e+01  1.6118017859024599e+02  1.8950672375982657e+02  1.7744352718911642e+02  1.7296991497308781e+02  1.6345080231747343e+02  1.5935166890740567e+02  1.5865683498934311e+02  1.5335516336608990e+02  1.4957106037891620e+02  1.4899268339201058e+02  1.4620696012779737e+02  1.4329354873529445e+02  1.4291344822117011e+02  1.4135889896531640e+02  1.3897095658927455e+02  1.3874622860477089e+02  1.3789271543222037e+02  1.3583278262283051e+02  1.3572071775129956e+02  1.3530838280928381e+02  1.3346609468635816e+02  1.3343609841705754e+02  1.3332133609204089e+02  1.3163084623190070e+02  1.3166159113437945e+02  1.3175777413769521e+02  1.3017719984048281e+02  1.3025352116679377e+02  1.3050480344668762e+02  1.2900602613404169e+02  1.2911682537684129e+02  1.2948528020699013e+02  1.2804855801773371e+02  1.2818547352501272e+02  1.2864423963877960e+02  1.2725518416276986e+02  1.2741174450388920e+02  1.2794112694254370e+02  1.2658891429857314e+02  1.2675998738454376e+02  1.2734511775561171e+02  1.2602138088410338e+02  1.2620280629524844e+02  1.2683217520900222e+02  1.2553029080478025e+02  1.2571862813945447e+02  1.2638312969775332e+02  1.2509774359577179e+02  1.2529009613346169e+02  1.2598238567020911e+02  1.2470908768463889e+02  1.2490297615463282e+02  1.2561702650697002e+02  1.2435212199344855e+02  1.2454539246411581e+02  1.2527617999631741e+02  1.2401652580737976e+02  1.2420728132487997e+02  1.2495055907684058e+02  1.2369344348098518e+02  1.2387999258013139e+02  1.2463212333925966e+02  1.2337517664528697e+02  1.2355599408115984e+02  1.2431382556786571e+02  1.2305495264339037e+02  1.2322864913990112e+02  1.2398941937700137e+02  1.2272674808181236e+02  1.2289204685540385e+02  1.2365331156700876e+02  1.2238515296730780e+02  1.2254087143485832e+02  1.2330044779958347e+02  1.2202526525817375e+02  1.2217030078726133e+02  1.2292622353267487e+02  1.2164260860508601e+02  1.2177592747995344e+02  1.2252641444117818e+02  1.2123306808596720e+02  1.2135369708771992e+02  1.2209712214322937e+02  1.2079284016099568e+02  1.2089986032384222e+02  1.2163473218007024e+02  1.2031839408788792e+02  1.2041093631514750e+02  1.2113588201275095e+02  1.1980644277315426e+02  1.1988368508702972e+02  1.2059743739528697e+02  1.1925392157617790e+02  1.1931508784719649e+02  1.2001647592986964e+02  1.1865797399146359e+02  1.1870233404773793e+02  1.1939027694840382e+02  1.1801594344482545e+02  1.1804281450785045e+02  1.1871631712790227e+02  1.1732537068365866e+02  1.1733412011435644e+02  1.1799227145667940e+02  1.1658399643719332e+02  1.1657404580966009e+02  1.1721601933912306e+02  1.1578976918346638e+02  1.1576059973272260e+02  1.1638565577133609e+02  1.1494085799813431e+02  1.1489201751681925e+02  1.1549950764525408e+02  1.1403567058044983e+02  1.1396678186533909e+02  1.1455615535232590e+02  1.1307287666265982e+02  1.1298364763959172e+02  1.1355445996406169e+02  1.1205143711436654e+02  1.1194167279624672e+02  1.1249359636857908e+02  1.1097063915365517e+02  1.1084025561588660e+02  1.1137309284317811e+02  1.0983013817879142e+02  1.0967917876498184e+02  1.1019287764499569e+02  1.0863000683584093e+02  1.0845866083808436e+02  1.0895333330351568e+02  1.0737079204082889e+02  1.0717941612980570e+02  1.0765535940233023e+02  1.0605358077624551e+02  1.0584272348810286e+02  1.0630044473542270e+02  1.0468007557966281e+02  1.0445050519369673e+02  1.0489074981387456e+02  1.0325268072394499e+02  1.0300541688642180e+02  1.0342920076218086e+02  1.0177460014173020e+02  1.0151094959560238e+02  1.0191959566108062e+02  1.0024994813969469e+02  9.9971544896056542e+01  1.0036672432304948e+02  9.8683873834130353e+01  9.8392724046566244e+01  9.8776502258214435e+01  9.7082699936819182e+01  9.6781231573517616e+01  9.7156119087642068e+01  9.5454075890687008e+01  9.5145192982731544e+01  9.5514200699926789e+01  9.3807144180467290e+01  9.3494284853857067e+01  9.3860982719510204e+01  9.2152716564078830e+01  9.1839913083630307e+01  9.2208489891427973e+01  9.0503453459267405e+01  9.0195390902831988e+01  9.0570711131957239e+01  8.8874034064115591e+01  8.8576101762217306e+01  8.8963752529418329e+01  8.7281296374394202e+01  8.6999622857047513e+01  8.7405940493646668e+01  8.5744315720265334e+01  8.5485774627977790e+01  8.5917837852071813e+01  8.4284383549709901e+01  8.4056559417123466e+01  8.4522141539040618e+01  8.2924866750686888e+01  8.2735990294381537e+01  8.3243496438123358e+01  8.1691033224762279e+01  8.1549969945718786e+01  8.2108487632754347e+01  8.0610240315224786e+01  8.0526781103312018e+01  8.1146555086717854e+01  7.9713398771023691e+01  7.9699190632243372e+01  8.0392723608100837e+01  7.9038107602022308e+01  7.9107375628237222e+01  7.9888988871630801e+01  7.8626100353486223e+01  7.8788951977065238e+01  7.9663415648362573e+01  7.8489943206045069e+01  7.8736027711621801e+01  7.9684374995303955e+01  7.8564978652028060e+01  1.6157512831184019e+02  1.6974570878712527e+02  1.6741006044251711e+02  1.6781493231364271e+02  1.6314590093421015e+02  1.6108006904958009e+02  1.5602623875809286e+02  1.5278317398897494e+02  1.5221291204818093e+02  1.4899303437812816e+02  1.4601037712174374e+02  1.4560091609743100e+02  1.4372708223514161e+02  1.4122175863040059e+02  1.4095202266365419e+02  1.3987467949579454e+02  1.3771310448560308e+02  1.3755704083862213e+02  1.3698356870424743e+02  1.3505988689470175e+02  1.3499107429572265e+02  1.3475637070187986e+02  1.3300108278853438e+02  1.3299857883130377e+02  1.3300277349773103e+02  1.3137009388096232e+02  1.3141814139176796e+02  1.3159709081398552e+02  1.3005587171601104e+02  1.3014262592112775e+02  1.3045303705391319e+02  1.2898132819417609e+02  1.2909775348079182e+02  1.2950917916050244e+02  1.2809099591738814e+02  1.2823006519143811e+02  1.2872034114585344e+02  1.2734369695077707e+02  1.2749983437976560e+02  1.2805234584750667e+02  1.2670801574966042e+02  1.2687671030735812e+02  1.2747868368778600e+02  1.2615940251047536e+02  1.2633693733541956e+02  1.2697833285758905e+02  1.2567825976707114e+02  1.2586151984084637e+02  1.2653429084547386e+02  1.2524864224084260e+02  1.2543497552826067e+02  1.2613255922656487e+02  1.2485735101332689e+02  1.2504446661820876e+02  1.2576142549963724e+02  1.2449328830639539e+02  1.2467918066871943e+02  1.2541094461894377e+02  1.2414698881774765e+02  1.2432988053715326e+02  1.2507255791271952e+02  1.2381027338670179e+02  1.2398857159008720e+02  1.2473880853772140e+02  1.2347598917928900e+02  1.2364825189986654e+02  1.2440312609832901e+02  1.2313781223880935e+02  1.2330272231766675e+02  1.2405966172932411e+02  1.2279009580158571e+02  1.2294644053665245e+02  1.2370316064029547e+02  1.2242775277476683e+02  1.2257440803731369e+02  1.2332886294074369e+02  1.2204616414492456e+02  1.2218208203385856e+02  1.2293242617628353e+02  1.2164110740440637e+02  1.2176530675775726e+02  1.2250986482104766e+02  1.2120870070198139e+02  1.2132025996745772e+02  1.2205750325456268e+02  1.2074535957516535e+02  1.2084341167573228e+02  1.2157193967293667e+02  1.2024776395381990e+02  1.2033149288532488e+02  1.2105001905686393e+02  1.1971283373318109e+02  1.1978147270796737e+02  1.2048881381733750e+02  1.1913771167066122e+02  1.1919054268171081e+02  1.1988561111703167e+02  1.1851975270446086e+02  1.1855610743285386e+02  1.1923790615353423e+02  1.1785651905954836e+02  1.1787578108734242e+02  1.1854340091734868e+02  1.1714578071630199e+02  1.1714738904041148e+02  1.1780000811888958e+02  1.1638552098664934e+02  1.1636897485800382e+02  1.1700586012606935e+02  1.1557394708298804e+02  1.1553881222094073e+02  1.1615932288035900e+02  1.1470950568259114e+02  1.1465542193837416e+02  1.1525901486463358e+02  1.1379090359377649e+02  1.1371759415792380e+02  1.1430383129077644e+02  1.1281713371973154e+02  1.1272441598948954e+02  1.1329297375889823e+02  1.1178750659716331e+02  1.1167530483806291e+02  1.1222598571355185e+02  1.1070168785734498e+02  1.1057004781114941e+02  1.1110279408797278e+02  1.0955974201929030e+02  1.0940884762254741e+02  1.0992375757839619e+02  1.0836218307079521e+02  1.0819237545863599e+02  1.0868972202603874e+02  1.0711003232074037e+02  1.0692183128929037e+02  1.0740208339099034e+02  1.0580488400042935e+02  1.0559901208881472e+02  1.0606285876700139e+02  1.0444897903806667e+02  1.0422638835514330e+02  1.0467476578517656e+02  1.0304528729927054e+02  1.0280718915158938e+02  1.0324131054775297e+02  1.0159759833540708e+02  1.0134549559165106e+02  1.0176688387206246e+02  1.0011062024908604e+02  9.9846342175873716e+01  1.0025686502002721e+02  9.8590085580370584e+01  9.8315824566788095e+01  9.8717731134527966e+01  9.7042862013358118e+01  9.6761211118034851e+01  9.7157169147334557e+01  9.5477064041905265e+01  9.5191053590217365e+01  9.5584184802186527e+01  9.3902159360250536e+01  9.3615289854109719e+01  9.4009200544992268e+01  9.2329060611511537e+01  9.2045328044343520e+01  9.2444130561564549e+01  9.0770189629155894e+01  9.0494098271993195e+01  9.0902418275698409e+01  8.9239499084333914e+01  8.8976057028253862e+01  8.9399022579636863e+01  8.7752440281465425e+01  8.7507137362121682e+01  8.7950352791244114e+01  8.6325887485836361e+01  8.6104670219920862e+01  8.6574198720982963e+01  8.4978093818569761e+01  8.4787390161641568e+01  8.5289818706323445e+01  8.3728904510301348e+01  8.3575828615073831e+01  8.4118580109861895e+01  8.2600724076143777e+01  8.2493695667588526e+01  8.3085843190637192e+01  8.1620974699578824e+01  8.1570943813172079e+01  8.2224576697533536e+01  8.0826070740083168e+01  8.0847693205005967e+01  8.1578505184176279e+01  8.0262643891048654e+01  8.0372004837159437e+01  8.1194813574399618e+01  7.9974086797456508e+01  8.0180843916429396e+01  8.1102879318034766e+01  7.9981735774601503e+01  8.0289120004879905e+01  1.5364724227035114e+02  1.5421935688259413e+02  1.6531185875025190e+02  1.6128351974860053e+02  1.5995321420141062e+02  1.5801603176671188e+02  1.5497005235125073e+02  1.5396834791835815e+02  1.5094280472748935e+02  1.4821725668602556e+02  1.4780082439959233e+02  1.4574411361310075e+02  1.4322977448666802e+02  1.4294700954334346e+02  1.4169135096718563e+02  1.3947087562004333e+02  1.3929024636011349e+02  1.3857389197998236e+02  1.3658839840314886e+02  1.3649223425678784e+02  1.3614583308326900e+02  1.3433581168789814e+02  1.3430709493420815e+02  1.3422335533637704e+02  1.3254422537841276e+02  1.3256852452867