<?xml version="1.0"?>
<VTKFile type="UnstructuredGrid"  version="0.1"  >
<UnstructuredGrid>
<Piece  NumberOfPoints="10201" NumberOfCells="20000">
<Points>
<DataArray  type="Float64"  NumberOfComponents="3"  format="ascii">0 0 0  0.01 0 0  0.02 0 0  0.03 0 0  0.04 0 0  0.05 0 0  0.06 0 0  0.07000000000000001 0 0  0.08 0 0  0.09 0 0  0.1 0 0  0.11 0 0  0.12 0 0  0.13 0 0  0.14 0 0  0.15 0 0  0.16 0 0  0.17 0 0  0.18 0 0  0.19 0 0  0.2 0 0  0.21 0 0  0.22 0 0  0.23 0 0  0.24 0 0  0.25 0 0  0.26 0 0  0.27 0 0  0.28 0 0  0.29 0 0  0.3 0 0  0.31 0 0  0.32 0 0  0.33 0 0  0.34 0 0  0.35 0 0  0.36 0 0  0.37 0 0  0.38 0 0  0.39 0 0  0.4 0 0  0.41 0 0  0.42 0 0  0.43 0 0  0.44 0 0  0.45 0 0  0.46 0 0  0.47 0 0  0.48 0 0  0.49 0 0  0.5 0 0  0.51 0 0  0.52 0 0  0.53 0 0  0.54 0 0  0.55 0 0  0.5600000000000001 0 0  0.57 0 0  0.58 0 0  0.59 0 0  0.6 0 0  0.61 0 0  0.62 0 0  0.63 0 0  0.64 0 0  0.65 0 0  0.66 0 0  0.67 0 0  0.68 0 0  0.6899999999999999 0 0  0.7 0 0  0.71 0 0  0.72 0 0  0.73 0 0  0.74 0 0  0.75 0 0  0.76 0 0  0.77 0 0  0.78 0 0  0.79 0 0  0.8 0 0  0.8100000000000001 0 0  0.82 0 0  0.83 0 0  0.84 0 0  0.85 0 0  0.86 0 0  0.87 0 0  0.88 0 0  0.89 0 0  0.9 0 0  0.91 0 0  0.92 0 0  0.93 0 0  0.9399999999999999 0 0  0.95 0 0  0.96 0 0  0.97 0 0  0.98 0 0  0.99 0 0  1 0 0  0 0.01 0  0.01 0.01 0  0.02 0.01 0  0.03 0.01 0  0.04 0.01 0  0.05 0.01 0  0.06 0.01 0  0.07000000000000001 0.01 0  0.08 0.01 0  0.09 0.01 0  0.1 0.01 0  0.11 0.01 0  0.12 0.01 0  0.13 0.01 0  0.14 0.01 0  0.15 0.01 0  0.16 0.01 0  0.17 0.01 0  0.18 0.01 0  0.19 0.01 0  0.2 0.01 0  0.21 0.01 0  0.22 0.01 0  0.23 0.01 0  0.24 0.01 0  0.25 0.01 0  0.26 0.01 0  0.27 0.01 0  0.28 0.01 0  0.29 0.01 0  0.3 0.01 0  0.31 0.01 0  0.32 0.01 0  0.33 0.01 0  0.34 0.01 0  0.35 0.01 0  0.36 0.01 0  0.37 0.01 0  0.38 0.01 0  0.39 0.01 0  0.4 0.01 0  0.41 0.01 0  0.42 0.01 0  0.43 0.01 0  0.44 0.01 0  0.45 0.01 0  0.46 0.01 0  0.47 0.01 0  0.48 0.01 0  0.49 0.01 0  0.5 0.01 0  0.51 0.01 0  0.52 0.01 0  0.53 0.01 0  0.54 0.01 0  0.55 0.01 0  0.5600000000000001 0.01 0  0.57 0.01 0  0.58 0.01 0  0.59 0.01 0  0.6 0.01 0  0.61 0.01 0  0.62 0.01 0  0.63 0.01 0  0.64 0.01 0  0.65 0.01 0  0.66 0.01 0  0.67 0.01 0  0.68 0.01 0  0.6899999999999999 0.01 0  0.7 0.01 0  0.71 0.01 0  0.72 0.01 0  0.73 0.01 0  0.74 0.01 0  0.75 0.01 0  0.76 0.01 0  0.77 0.01 0  0.78 0.01 0  0.79 0.01 0  0.8 0.01 0  0.8100000000000001 0.01 0  0.82 0.01 0  0.83 0.01 0  0.84 0.01 0  0.85 0.01 0  0.86 0.01 0  0.87 0.01 0  0.88 0.01 0  0.89 0.01 0  0.9 0.01 0  0.91 0.01 0  0.92 0.01 0  0.93 0.01 0  0.9399999999999999 0.01 0  0.95 0.01 0  0.96 0.01 0  0.97 0.01 0  0.98 0.01 0  0.99 0.01 0  1 0.01 0  0 0.02 0  0.01 0.02 0  0.02 0.02 0  0.03 0.02 0  0.04 0.02 0  0.05 0.02 0  0.06 0.02 0  0.07000000000000001 0.02 0  0.08 0.02 0  0.09 0.02 0  0.1 0.02 0  0.11 0.02 0  0.12 0.02 0  0.13 0.02 0  0.14 0.02 0  0.15 0.02 0  0.16 0.02 0  0.17 0.02 0  0.18 0.02 0  0.19 0.02 0  0.2 0.02 0  0.21 0.02 0  0.22 0.02 0  0.23 0.02 0  0.24 0.02 0  0.25 0.02 0  0.26 0.02 0  0.27 0.02 0  0.28 0.02 0  0.29 0.02 0  0.3 0.02 0  0.31 0.02 0  0.32 0.02 0  0.33 0.02 0  0.34 0.02 0  0.35 0.02 0  0.36 0.02 0  0.37 0.02 0  0.38 0.02 0  0.39 0.02 0  0.4 0.02 0  0.41 0.02 0  0.42 0.02 0  0.43 0.02 0  0.44 0.02 0  0.45 0.02 0  0.46 0.02 0  0.47 0.02 0  0.48 0.02 0  0.49 0.02 0  0.5 0.02 0  0.51 0.02 0  0.52 0.02 0  0.53 0.02 0  0.54 0.02 0  0.55 0.02 0  0.5600000000000001 0.02 0  0.57 0.02 0  0.58 0.02 0  0.59 0.02 0  0.6 0.02 0  0.61 0.02 0  0.62 0.02 0  0.63 0.02 0  0.64 0.02 0  0.65 0.02 0  0.66 0.02 0  0.67 0.02 0  0.68 0.02 0  0.6899999999999999 0.02 0  0.7 0.02 0  0.71 0.02 0  0.72 0.02 0  0.73 0.02 0  0.74 0.02 0  0.75 0.02 0  0.76 0.02 0  0.77 0.02 0  0.78 0.02 0  0.79 0.02 0  0.8 0.02 0  0.8100000000000001 0.02 0  0.82 0.02 0  0.83 0.02 0  0.84 0.02 0  0.85 0.02 0  0.86 0.02 0  0.87 0.02 0  0.88 0.02 0  0.89 0.02 0  0.9 0.02 0  0.91 0.02 0  0.92 0.02 0  0.93 0.02 0  0.9399999999999999 0.02 0  0.95 0.02 0  0.96 0.02 0  0.97 0.02 0  0.98 0.02 0  0.99 0.02 0  1 0.02 0  0 0.03 0  0.01 0.03 0  0.02 0.03 0  0.03 0.03 0  0.04 0.03 0  0.05 0.03 0  0.06 0.03 0  0.07000000000000001 0.03 0  0.08 0.03 0  0.09 0.03 0  0.1 0.03 0  0.11 0.03 0  0.12 0.03 0  0.13 0.03 0  0.14 0.03 0  0.15 0.03 0  0.16 0.03 0  0.17 0.03 0  0.18 0.03 0  0.19 0.03 0  0.2 0.03 0  0.21 0.03 0  0.22 0.03 0  0.23 0.03 0  0.24 0.03 0  0.25 0.03 0  0.26 0.03 0  0.27 0.03 0  0.28 0.03 0  0.29 0.03 0  0.3 0.03 0  0.31 0.03 0  0.32 0.03 0  0.33 0.03 0  0.34 0.03 0  0.35 0.03 0  0.36 0.03 0  0.37 0.03 0  0.38 0.03 0  0.39 0.03 0  0.4 0.03 0  0.41 0.03 0  0.42 0.03 0  0.43 0.03 0  0.44 0.03 0  0.45 0.03 0  0.46 0.03 0  0.47 0.03 0  0.48 0.03 0  0.49 0.03 0  0.5 0.03 0  0.51 0.03 0  0.52 0.03 0  0.53 0.03 0  0.54 0.03 0  0.55 0.03 0  0.5600000000000001 0.03 0  0.57 0.03 0  0.58 0.03 0  0.59 0.03 0  0.6 0.03 0  0.61 0.03 0  0.62 0.03 0  0.63 0.03 0  0.64 0.03 0  0.65 0.03 0  0.66 0.03 0  0.67 0.03 0  0.68 0.03 0  0.6899999999999999 0.03 0  0.7 0.03 0  0.71 0.03 0  0.72 0.03 0  0.73 0.03 0  0.74 0.03 0  0.75 0.03 0  0.76 0.03 0  0.77 0.03 0  0.78 0.03 0  0.79 0.03 0  0.8 0.03 0  0.8100000000000001 0.03 0  0.82 0.03 0  0.83 0.03 0  0.84 0.03 0  0.85 0.03 0  0.86 0.03 0  0.87 0.03 0  0.88 0.03 0  0.89 0.03 0  0.9 0.03 0  0.91 0.03 0  0.92 0.03 0  0.93 0.03 0  0.9399999999999999 0.03 0  0.95 0.03 0  0.96 0.03 0  0.97 0.03 0  0.98 0.03 0  0.99 0.03 0  1 0.03 0  0 0.04 0  0.01 0.04 0  0.02 0.04 0  0.03 0.04 0  0.04 0.04 0  0.05 0.04 0  0.06 0.04 0  0.07000000000000001 0.04 0  0.08 0.04 0  0.09 0.04 0  0.1 0.04 0  0.11 0.04 0  0.12 0.04 0  0.13 0.04 0  0.14 0.04 0  0.15 0.04 0  0.16 0.04 0  0.17 0.04 0  0.18 0.04 0  0.19 0.04 0  0.2 0.04 0  0.21 0.04 0  0.22 0.04 0  0.23 0.04 0  0.24 0.04 0  0.25 0.04 0  0.26 0.04 0  0.27 0.04 0  0.28 0.04 0  0.29 0.04 0  0.3 0.04 0  0.31 0.04 0  0.32 0.04 0  0.33 0.04 0  0.34 0.04 0  0.35 0.04 0  0.36 0.04 0  0.37 0.04 0  0.38 0.04 0  0.39 0.04 0  0.4 0.04 0  0.41 0.04 0  0.42 0.04 0  0.43 0.04 0  0.44 0.04 0  0.45 0.04 0  0.46 0.04 0  0.47 0.04 0  0.48 0.04 0  0.49 0.04 0  0.5 0.04 0  0.51 0.04 0  0.52 0.04 0  0.53 0.04 0  0.54 0.04 0  0.55 0.04 0  0.5600000000000001 0.04 0  0.57 0.04 0  0.58 0.04 0  0.59 0.04 0  0.6 0.04 0  0.61 0.04 0  0.62 0.04 0  0.63 0.04 0  0.64 0.04 0  0.65 0.04 0  0.66 0.04 0  0.67 0.04 0  0.68 0.04 0  0.6899999999999999 0.04 0  0.7 0.04 0  0.71 0.04 0  0.72 0.04 0  0.73 0.04 0  0.74 0.04 0  0.75 0.04 0  0.76 0.04 0  0.77 0.04 0  0.78 0.04 0  0.79 0.04 0  0.8 0.04 0  0.8100000000000001 0.04 0  0.82 0.04 0  0.83 0.04 0  0.84 0.04 0  0.85 0.04 0  0.86 0.04 0  0.87 0.04 0  0.88 0.04 0  0.89 0.04 0  0.9 0.04 0  0.91 0.04 0  0.92 0.04 0  0.93 0.04 0  0.9399999999999999 0.04 0  0.95 0.04 0  0.96 0.04 0  0.97 0.04 0  0.98 0.04 0  0.99 0.04 0  1 0.04 0  0 0.05 0  0.01 0.05 0  0.02 0.05 0  0.03 0.05 0  0.04 0.05 0  0.05 0.05 0  0.06 0.05 0  0.07000000000000001 0.05 0  0.08 0.05 0  0.09 0.05 0  0.1 0.05 0  0.11 0.05 0  0.12 0.05 0  0.13 0.05 0  0.14 0.05 0  0.15 0.05 0  0.16 0.05 0  0.17 0.05 0  0.18 0.05 0  0.19 0.05 0  0.2 0.05 0  0.21 0.05 0  0.22 0.05 0  0.23 0.05 0  0.24 0.05 0  0.25 0.05 0  0.26 0.05 0  0.27 0.05 0  0.28 0.05 0  0.29 0.05 0  0.3 0.05 0  0.31 0.05 0  0.32 0.05 0  0.33 0.05 0  0.34 0.05 0  0.35 0.05 0  0.36 0.05 0  0.37 0.05 0  0.38 0.05 0  0.39 0.05 0  0.4 0.05 0  0.41 0.05 0  0.42 0.05 0  0.43 0.05 0  0.44 0.05 0  0.45 0.05 0  0.46 0.05 0  0.47 0.05 0  0.48 0.05 0  0.49 0.05 0  0.5 0.05 0  0.51 0.05 0  0.52 0.05 0  0.53 0.05 0  0.54 0.05 0  0.55 0.05 0  0.5600000000000001 0.05 0  0.57 0.05 0  0.58 0.05 0  0.59 0.05 0  0.6 0.05 0  0.61 0.05 0  0.62 0.05 0  0.63 0.05 0  0.64 0.05 0  0.65 0.05 0  0.66 0.05 0  0.67 0.05 0  0.68 0.05 0  0.6899999999999999 0.05 0  0.7 0.05 0  0.71 0.05 0  0.72 0.05 0  0.73 0.05 0  0.74 0.05 0  0.75 0.05 0  0.76 0.05 0  0.77 0.05 0  0.78 0.05 0  0.79 0.05 0  0.8 0.05 0  0.8100000000000001 0.05 0  0.82 0.05 0  0.83 0.05 0  0.84 0.05 0  0.85 0.05 0  0.86 0.05 0  0.87 0.05 0  0.88 0.05 0  0.89 0.05 0  0.9 0.05 0  0.91 0.05 0  0.92 0.05 0  0.93 0.05 0  0.9399999999999999 0.05 0  0.95 0.05 0  0.96 0.05 0  0.97 0.05 0  0.98 0.05 0  0.99 0.05 0  1 0.05 0  0 0.06 0  0.01 0.06 0  0.02 0.06 0  0.03 0.06 0  0.04 0.06 0  0.05 0.06 0  0.06 0.06 0  0.07000000000000001 0.06 0  0.08 0.06 0  0.09 0.06 0  0.1 0.06 0  0.11 0.06 0  0.12 0.06 0  0.13 0.06 0  0.14 0.06 0  0.15 0.06 0  0.16 0.06 0  0.17 0.06 0  0.18 0.06 0  0.19 0.06 0  0.2 0.06 0  0.21 0.06 0  0.22 0.06 0  0.23 0.06 0  0.24 0.06 0  0.25 0.06 0  0.26 0.06 0  0.27 0.06 0  0.28 0.06 0  0.29 0.06 0  0.3 0.06 0  0.31 0.06 0  0.32 0.06 0  0.33 0.06 0  0.34 0.06 0  0.35 0.06 0  0.36 0.06 0  0.37 0.06 0  0.38 0.06 0  0.39 0.06 0  0.4 0.06 0  0.41 0.06 0  0.42 0.06 0  0.43 0.06 0  0.44 0.06 0  0.45 0.06 0  0.46 0.06 0  0.47 0.06 0  0.48 0.06 0  0.49 0.06 0  0.5 0.06 0  0.51 0.06 0  0.52 0.06 0  0.53 0.06 0  0.54 0.06 0  0.55 0.06 0  0.5600000000000001 0.06 0  0.57 0.06 0  0.58 0.06 0  0.59 0.06 0  0.6 0.06 0  0.61 0.06 0  0.62 0.06 0  0.63 0.06 0  0.64 0.06 0  0.65 0.06 0  0.66 0.06 0  0.67 0.06 0  0.68 0.06 0  0.6899999999999999 0.06 0  0.7 0.06 0  0.71 0.06 0  0.72 0.06 0  0.73 0.06 0  0.74 0.06 0  0.75 0.06 0  0.76 0.06 0  0.77 0.06 0  0.78 0.06 0  0.79 0.06 0  0.8 0.06 0  0.8100000000000001 0.06 0  0.82 0.06 0  0.83 0.06 0  0.84 0.06 0  0.85 0.06 0  0.86 0.06 0  0.87 0.06 0  0.88 0.06 0  0.89 0.06 0  0.9 0.06 0  0.91 0.06 0  0.92 0.06 0  0.93 0.06 0  0.9399999999999999 0.06 0  0.95 0.06 0  0.96 0.06 0  0.97 0.06 0  0.98 0.06 0  0.99 0.06 0  1 0.06 0  0 0.07000000000000001 0  0.01 0.07000000000000001 0  0.02 0.07000000000000001 0  0.03 0.07000000000000001 0  0.04 0.07000000000000001 0  0.05 0.07000000000000001 0  0.06 0.07000000000000001 0  0.07000000000000001 0.07000000000000001 0  0.08 0.07000000000000001 0  0.09 0.07000000000000001 0  0.1 0.07000000000000001 0  0.11 0.07000000000000001 0  0.12 0.07000000000000001 0  0.13 0.07000000000000001 0  0.14 0.07000000000000001 0  0.15 0.07000000000000001 0  0.16 0.07000000000000001 0  0.17 0.0700
[...]
<PointData  Scalars="f_842"> 
<DataArray  type="Float64"  Name="f_842"  format="ascii">1.6583462324311949e+02  9.8270175631231240e+01  8.1826284420451472e+01  7.4259927390423854e+01  6.9448432555871776e+01  6.6059482743846701e+01  6.3512971709545980e+01  6.1518071158005846e+01  5.9909650397761766e+01  5.8584908881383413e+01  5.7475656243772441e+01  5.6534401971954594e+01  5.5726769884061731e+01  5.5027080240324260e+01  5.4415638352347877e+01  5.3876997716538241e+01  5.3398806882807534e+01  5.2971020257526753e+01  5.2585343670619380e+01  5.2234835902625505e+01  5.1913616513493963e+01  5.1616647783141538e+01  5.1339569370462350e+01  5.1078571153404532e+01  5.0830294173921764e+01  5.0591752577374969e+01  5.0360271447216441e+01  5.0133436823545615e+01  4.9909055168192488e+01  4.9685120231895034e+01  4.9459785779967810e+01  4.9231342998064086e+01  4.8998201670942507e+01  4.8758874428832350e+01  4.8511963509250641e+01  4.8256149598562324e+01  4.7990182407561683e+01  4.7712872704860487e+01  4.7423085586761424e+01  4.7119734805232390e+01  4.6801778010279492e+01  4.6468212790115565e+01  4.6118073415546775e+01  4.5750428212430748e+01  4.5364377501875765e+01  4.4959052059776319e+01  4.4533612058070318e+01  4.4087246458846352e+01  4.3619172840496589e+01  4.3128637641180013e+01  4.2614916811588664e+01  4.2077316873749588e+01  4.1515176387916789e+01  4.0927867834119787e+01  4.0314799919282187e+01  3.9675420325258848e+01  3.9009218917399956e+01  3.8315731437488445e+01  3.7594543709468233e+01  3.6845296390913077e+01  3.6067690308115814e+01  3.5261492418092359e+01  3.4426542446243637e+01  3.3562760254518579e+01  3.2670154002165063e+01  3.1748829168016062e+01  3.0798998511915411e+01  2.9820993061858449e+01  2.8815274223856989e+01  2.7782447122713986e+01  2.6723275294883155e+01  2.5638696868795812e+01  2.4529842383820814e+01  2.3398054417133718e+01  2.2244909207037960e+01  2.1072240482807537e+01  1.9882165734913016e+01  1.8677115183648951e+01  1.7459863729832048e+01  1.6233566195640197e+01  1.5001796185075609e+01  1.3768588906689926e+01  1.2538488301349233e+01  1.1316598792165054e+01  1.0108641909110732e+01  8.9210179126727454e+00  7.7608723209642978e+00  6.6361668948826606e+00  5.5557541168801627e+00  4.5294534553596844e+00  3.5681265550139032e+00  2.6837460075605972e+00  1.8894442827570728e+00  1.1995005001093102e+00  6.2913818882787487e-01  1.9346229095198833e-01  -9.3983160907424243e-02  -6.4058018547685600e-02  -6.7857753227240206e-02  -8.1524164742290517e-02  1.3929658929205003e-03  7.8682991085779079e+01  9.0141646647672673e+01  8.2283399215674081e+01  7.6678678039202822e+01  7.1863651873692973e+01  6.8299437059685147e+01  6.5550476547246305e+01  6.3370478702083155e+01  6.1600609520460537e+01  6.0136270058778997e+01  5.8905924678512854e+01  5.7858879117243987e+01  5.6958072196210580e+01  5.6175666356863609e+01  5.5490254566690119e+01  5.4885032798087664e+01  5.4346568976442981e+01  5.3863951944813593e+01  5.3428189403437031e+01  5.3031773125402701e+01  5.2668359130853752e+01  5.2332528493498117e+01  5.2019605755912337e+01  5.1725519199993300e+01  5.1446691994254380e+01  5.1179956440560730e+01  5.0922485725170723e+01  5.0671739093323474e+01  5.0425417431677836e+01  5.0181427004657202e+01  4.9937849640685030e+01  4.9692918068070242e+01  4.9444995397617689e+01  4.9192557973909665e+01  4.8934180984683486e+01  4.8668526347659572e+01  4.8394332492367759e+01  4.8110405732535114e+01  4.7815612983897132e+01  4.7508875630736775e+01  4.7189164381673770e+01  4.6855494985781533e+01  4.6506924704557143e+01  4.6142549455633741e+01  4.5761501559263593e+01  4.5362948033831543e+01  4.4946089396528663e+01  4.4510158935977046e+01  4.4054422430547611e+01  4.3578178294711464e+01  4.3080758140238338e+01  4.2561527746001445e+01  4.2019888433956169e+01  4.1455278854072766e+01  4.0867177184742715e+01  4.0255103759630451e+01  3.9618624134944803e+01  3.8957352615703797e+01  3.8270956262591916e+01  3.7559159404800610e+01  3.6821748688126611e+01  3.6058578690785517e+01  3.5269578143797489e+01  3.4454756796181378e+01  3.3614212968961539e+01  3.2748141846192311e+01  3.1856844554637711e+01  3.0940738087392774e+01  3.0000366129526288e+01  2.9036410846807726e+01  2.8049705699243773e+01  2.7041249341557570e+01  2.6012220669230363e+01  2.4963995062883750e+01  2.3898161872213997e+01  2.2816543161424040e+01  2.1721213708800367e+01  2.0614522208913176e+01  1.9499113560887444e+01  1.8377952033579756e+01  1.7254344966282467e+01  1.6131966483051222e+01  1.5014880452897101e+01  1.3907561609475454e+01  1.2814913353450772e+01  1.1742280334502233e+01  1.0695453568437554e+01  9.6806658834944397e+00  8.7045765622533899e+00  7.7742474576543401e+00  6.8971208983044523e+00  6.0810255014182193e+00  5.3342609407474946e+00  4.6658354447861541e+00  4.0858895360037275e+00  3.6061128491424390e+00  3.2387433872899591e+00  2.9834816653163747e+00  2.8524483776979550e+00  2.8604918476157266e+00  2.9331594711291356e+00  6.9062386406637330e+01  7.5851046950004317e+01  7.6821561909783526e+01  7.4461236198631724e+01  7.1433684957751751e+01  6.8676995085744437e+01  6.6295932212354586e+01  6.4284813827149790e+01  6.2585276415655073e+01  6.1140490625039455e+01  5.9902752599793104e+01  5.8833896302160191e+01  5.7903718851580976e+01  5.7088256264753014e+01  5.6368339333707517e+01  5.5728475257376182e+01  5.5156004165259674e+01  5.4640467023781149e+01  5.4173130773377054e+01  5.3746629208967349e+01  5.3354689058614831e+01  5.2991919089172534e+01  5.2653646187446327e+01  5.2335786758154107e+01  5.2034744917729164e+01  5.1747331207948193e+01  5.1470697167455334e+01  5.1202282268005810e+01  5.0939770575307413e+01  5.0681055121849113e+01  5.0424208445265116e+01  5.0167458094291611e+01  4.9909166167628335e+01  4.9647812151451618e+01  4.9381978474550706e+01  4.9110338319233314e+01  4.8831645318040721e+01  4.8544724839258159e+01  4.8248466620860661e+01  4.7941818558667634e+01  4.7623781490237000e+01  4.7293404845853502e+01  4.6949783061512747e+01  4.6592052668317450e+01  4.6219389988576467e+01  4.5831009382386817e+01  4.5426161999029262e+01  4.5004134997399397e+01  4.4564251206923039e+01  4.4105869207539335e+01  4.3628383812823571e+01  4.3131226945405722e+01  4.2613868897997044e+01  4.2075819977656842e+01  4.1516632533285097e+01  4.0935903370312424e+01  4.0333276558442883e+01  3.9708446640645228e+01  3.9061162253389249e+01  3.8391230169997861e+01  3.7698519778938149e+01  3.6982968010828550e+01  3.6244584726274347e+01  3.5483458577028159e+01  3.4699763350257555e+01  3.3893764802932751e+01  3.3065827988728522e+01  3.2216425072932076e+01  3.1346143622321058e+01  3.0455695344111778e+01  2.9545925232314541e+01  2.8617821059621381e+01  2.7672523124961447e+01  2.6711334134907457e+01  2.5735729055186717e+01  2.4747364718426940e+01  2.3748088916719858e+01  2.2739948641312751e+01  2.1725197064673434e+01  2.0706298798311654e+01  1.9685932924162255e+01  1.8666993318174693e+01  1.7652585918100055e+01  1.6646022923824031e+01  1.5650814601782061e+01  1.4670660611704502e+01  1.3709444903134370e+01  1.2771241656603332e+01  1.1860344950517476e+01  1.0981342165483065e+01  1.0139260261904965e+01  9.3398226704882727e+00  8.5898555103125069e+00  7.8978582102573327e+00  7.2746739573140307e+00  6.7340138867059744e+00  6.2923136080792803e+00  5.9681224267812585e+00  5.7812057836245874e+00  5.7466048187376275e+00  5.8975190538169340e+00  6.3220558456970721e+01  6.7665424316588272e+01  7.0260685532723457e+01  7.0435829116141491e+01  6.9284548222991504e+01  6.7653727713426875e+01  6.5955250751921895e+01  6.4356018484150624e+01  6.2907560816282128e+01  6.1616770643507415e+01  6.0472916938254350e+01  5.9459846006775471e+01  5.8560808579394283e+01  5.7760286342991137e+01  5.7044546084981647e+01  5.6401674509815329e+01  5.5821417823684541e+01  5.5294964652040136e+01  5.4814729433852506e+01  5.4374157611799447e+01  5.3967558396622181e+01  5.3589964444202678e+01  5.3237015419526571e+01  5.2904861842881893e+01  5.2590085776271096e+01  5.2289635333155694e+01  5.2000770477884274e+01  5.1721018032008473e+01  5.1448134195761838e+01  5.1180073218408744e+01  5.0914961116467694e+01  5.0651073553029946e+01  5.0386817162521474e+01  5.0120713742541525e+01  4.9851386843825679e+01  4.9577550377361995e+01  4.9297998927822789e+01  4.9011599519240960e+01  4.8717284624729196e+01  4.8414046248934042e+01  4.8100930942418138e+01  4.7777035631533749e+01  4.7441504167896511e+01  4.7093524518227319e+01  4.6732326529101343e+01  4.6357180212716898e+01  4.5967394509276104e+01  4.5562316489863186e+01  4.5141330970076510e+01  4.4703860510441778e+01  4.4249365784436129e+01  4.3777346298661925e+01  4.3287341452887489e+01  4.2778931930387330e+01  4.2251741410555717e+01  4.1705438597743004e+01  4.1139739559902992e+01  4.0554410372259184e+01  3.9949270058983089e+01  3.9324193825729836e+01  3.8679116573281206e+01  3.8014036679240171e+01  3.7329020030449705e+01  3.6624204283437535e+01  3.5899803322777494e+01  3.5156111877988337e+01  3.4393510249310282e+01  3.3612469078530673e+01  3.2813554085982403e+01  3.1997430675749655e+01  3.1164868290185876e+01  3.0316744371489282e+01  2.9454047762924890e+01  2.8577881356992012e+01  2.7689463775775309e+01  2.6790129852985444e+01  2.5881329686506934e+01  2.4964626053953257e+01  2.4041690049969649e+01  2.3114294935762050e+01  2.2184308424378973e+01  2.1253684010191687e+01  2.0324452554362814e+01  1.9398716256463498e+01  1.8478648492645551e+01  1.7566504936095669e+01  1.6664654060374538e+01  1.5775638719074079e+01  1.4902285054509084e+01  1.4047880296038731e+01  1.3216446190112718e+01  1.2413137604072878e+01  1.1644791493478460e+01  1.0920631535785791e+01  1.0253087744840563e+01  9.6586183613482195e+00  9.1583880658427592e+00  8.7787756608547074e+00  8.5524073692482521e+00  8.5238844886526159e+00  8.7674162705487380e+00  5.9543431011329638e+01  6.2771166500558373e+01  6.5304971181287655e+01  6.6487538675882291e+01  6.6523619268003998e+01  6.5870977224694656e+01  6.4888709639784949e+01  6.3790398211685151e+01  6.2688787702072233e+01  6.1638131765631783e+01  6.0661137613320932e+01  5.9764361759339891e+01  5.8946372663262629e+01  5.8202046854772362e+01  5.7524786987949284e+01  5.6907646776630209e+01  5.6343880578126814e+01  5.5827191121682603e+01  5.5351820311931725e+01  5.4912560283626220e+01  5.4504725884361299e+01  5.4124110465897921e+01  5.3766936446263422e+01  5.3429806457025641e+01  5.3109657832520249e+01  5.2803721556736747e+01  5.2509485922951512e+01  5.2224664729106664e+01  5.1947169634388068e+01  5.1675086231786118e+01  5.1406653386467838e+01  5.1140245417582427e+01  5.0874356742558554e+01  5.0607588648935966e+01  5.0338637903145731e+01  5.0066286946922567e+01  4.9789395468539652e+01  4.9506893168231642e+01  4.9217773564393106e+01  4.8921088710994411e+01  4.8615944716606272e+01  4.8301497972296460e+01  4.7976952010113628e+01  4.7641554925898092e+01  4.7294597310458649e+01  4.6935410641437656e+01  4.6563366095744115e+01  4.6177873748005346e+01  4.5778382125571028e+01  4.5364378094717502e+01  4.4935387055489848e+01  4.4490973425231481e+01  4.4030741392700101e+01  4.3554335925234426e+01  4.3061444012058331e+01  4.2551796126231430e+01  4.2025167886955010e+01  4.1481381901552489e+01  4.0920309764229003e+01  4.0341874185042691e+01  3.9746051217554793e+01  3.9132872548819535e+01  3.8502427807832376e+01  3.7854866841226887e+01  3.7190401895648989e+01  3.6509309635926762e+01  3.5811932916685677e+01  3.5098682212918206e+01  3.4370036602238272e+01  3.3626544179356898e+01  3.2868821772401830e+01  3.2097553823724709e+01  3.1313490295752754e+01  3.0517443471624144e+01  2.9710283543576843e+01  2.8892932927886399e+01  2.8066359325407809e+01  2.7231567671826379e+01  2.6389591314294403e+01  2.5541483033271355e+01  2.4688306934063640e+01  2.3831132803572995e+01  2.2971035318080350e+01  2.2109101564433498e+01  2.1246451782068071e+01  2.0384280139837006e+01  1.9523924828568013e+01  1.8666979855327384e+01  1.7815464673848812e+01  1.6972071997917499e+01  1.6140518241123928e+01  1.5326023677756485e+01  1.4535948090239813e+01  1.3780598493139946e+01  1.3074205003028203e+01  1.2436033651954810e+01  1.1891603152643468e+01  1.1474109974665915e+01  1.1226714403506838e+01  1.1207880249032122e+01  1.1503363129730044e+01  5.6925540870176683e+01  5.9419623747764717e+01  6.1648737159759150e+01  6.3133230425676729e+01  6.3799782758267689e+01  6.3827119057601443e+01  6.3439258562995100e+01  6.2816323923025934e+01  6.2079922282918048e+01  6.1304970656795732e+01  6.0534865124889080e+01  5.9793226665383166e+01  5.9091739485880304e+01  5.8435066833407234e+01  5.7823838532427800e+01  5.7256441435962437e+01  5.6730082721582804e+01  5.6241415989811735e+01  5.5786905258537850e+01  5.5363031937602130e+01  5.4966407843991981e+01  5.4593832206497446e+01  5.4242315578203865e+01  5.3909084537175502e+01  5.3591575589835315e+01  5.3287423366664854e+01  5.2994446167751747e+01  5.2710630669033790e+01  5.2434116834534045e+01  5.2163183610818542e+01  5.1896235693663890e+01  5.1631791485589865e+01  5.1368472260555720e+01  5.1104992496101964e+01  5.0840151301930284e+01  5.0572824860768961e+01  5.0301959793374962e+01  5.0026567361727643e+01  4.9745718428945047e+01  4.9458539101679200e+01  4.9164206987468376e+01  4.8861948006601075e+01  4.8551033704665201e+01  4.8230779018358994e+01  4.7900540451685714e+01  4.7559714625396175e+01  4.7207737165644424e+01  4.6844081901646838e+01  4.6468260344347136e+01  4.6079821420714758e+01  4.5678351438664329e+01  4.5263474259312105e+01  4.4834851652906600e+01  4.4392183814072752e+01  4.3935210011523218e+01  4.3463709344820913e+01  4.2977501578997305e+01  4.2476448024243709e+01  4.1960452424183529e+01  4.1429461811732892e+01  4.0883467286060913e+01  4.0322504658327013e+01  3.9746654907471637e+01  3.9156044379787417e+01  3.8550844659337130e+01  3.7931272028786751e+01  3.7297586433651063e+01  3.6650089858250688e+01  3.5989124018321426e+01  3.5315067276983982e+01  3.4628330697066389e+01  3.3929353159128318e+01  3.3218595500533297e+01  3.2496533675981958e+01  3.1763651005542066e+01  3.1020429673152528e+01  3.0267341775465965e+01  2.9504840411323915e+01  2.8733351561826588e+01  2.7953267862172879e+01  2.7164945834113730e+01  2.6368708768652251e+01  2.5564858262559383e+01  2.4753698475478753e+01  2.3935578552529833e+01  2.3110960424856184e+01  2.2280521446318080e+01  2.1445304115645104e+01  2.0606928499928813e+01  1.9767886814042431e+01  1.8931943553215252e+01  1.8104667755076836e+01  1.7294124747458987e+01  1.6511750656418457e+01  1.5773421797982383e+01  1.5100715430343360e+01  1.4522358672292155e+01  1.4075942793904115e+01  1.3810267333986133e+01  1.3789266023544753e+01  1.4098239944011262e+01  5.4940947080095675e+01  5.6965080499598379e+01  5.8894180696760074e+01  6.0404271241912291e+01  6.1363468501615806e+01  6.1809456310011413e+01  6.1856510887525552e+01  6.1627681100606551e+01  6.1224682830768337e+01  6.0721827503796291e+01  6.0169703616402259e+01  5.9601144045409228e+01  5.9036604016677593e+01  5.8488238132222904e+01  5.7962763988586126e+01  5.7463397840992691e+01  5.6991136569463009e+01  5.6545597326295365e+01  5.6125563768699919e+01  5.5729339513043179e+01  5.5354975444229680e+01  5.5000414592009271e+01  5.4663583157523469e+01  5.4342446383462345e+01  5.4035041516738545e+01  5.3739495909526184e+01  5.3454035556939374e+01  5.3176987566518349e+01  5.2906778866202643e+01  5.2641932671572441e+01  5.2381063710970494e+01  5.2122872859565049e+01  5.1866141602046596e+01  5.1609726588369107e+01  5.1352554444491936e+01  5.1093616931587697e+01  5.0831966502016208e+01  5.0566712271035769e+01  5.0297016404877425e+01  5.0022090913155402e+01  4.9741194827558971e+01  4.9453631743854778e+01  4.9158747703153480e+01  4.8855929386591349e+01  4.8544602598541012e+01  4.8224231012901726e+01  4.7894315157914392e+01  4.7554391615000029e+01  4.7204032407505153e+01  4.6842844554425106e+01  4.6470469764963340e+01  4.6086584247387847e+01  4.5690898605503605e+01  4.5283157793993624e+01  4.4863141101459298e+01  4.4430662127751766e+01  4.3985568718810853e+01  4.3527742818865264e+01  4.3057100195850957e+01  4.2573589991547387e+01  4.2077194043614888e+01  4.1567925922246339e+01  4.1045829619412700e+01  4.0510977825396729e+01  3.9963469724002216e+01  3.9403428236531482e+01  3.8830996645847300e+01  3.8246334535870695e+01  3.7649612991002144e+01  3.7041009015340506e+01  3.6420699155662952e+01  3.5788852347360738e+01  3.5145622052774407e+01  3.4491137830985970e+01  3.3825496572503866e+01  3.3148753758521785e+01  3.2460915271435034e+01  3.1761930502359110e+01  3.1051687786337951e+01  3.0330013565477227e+01  2.9596677157061496e+01  2.8851403617828144e+01  2.8093897984940956e+01  2.7323885186016490e+01  2.6541171203686087e+01  2.5745732722575312e+01  2.4937844550753201e+01  2.4118256655160334e+01  2.3288435696859398e+01  2.2450889403716815e+01  2.1609595651193381e+01  2.0770561012540909e+01  1.9942534461080005e+01  1.9137898914312952e+01  1.8373754599759231e+01  1.7673194972492610e+01  1.7066769019196524e+01  1.6594150573856595e+01  1.6306131049559482e+01  1.6267132593319449e+01  1.6558214783162953e+01  5.3371967502539093e+01  5.5074337870334659e+01  5.6754030665801579e+01  5.8193090059749196e+01  5.9265638206376153e+01  5.9949983846905731e+01  6.0291762851050187e+01  6.0363776225701749e+01  6.0239600234111762e+01  5.9981595582226817e+01  5.9637900419145581e+01  5.9243617336237875e+01  5.8823362190363156e+01  5.8393863568788142e+01  5.7966142548111634e+01  5.7547186989111403e+01  5.7141179647592047e+01  5.6750375982232370e+01  5.6375722242717103e+01  5.6017286838723621e+01  5.5674559733339180e+01  5.5346659411499978e+01  5.5032475424698667e+01  5.4730766124638613e+01  5.4440225250807330e+01  5.4159526875950895e+01  5.3887355319288488e+01  5.3622424631358811e+01  5.3363490862233697e+01  5.3109359358275931e+01  5.2858888659745730e+01  5.2610992100886840e+01  5.2364637885678896e+01  5.2118848180277588e+01  5.1872697600516659e+01  5.1625311357564911e+01  5.1375863243226696e+01  5.1123573578628132e+01  5.0867707208629241e+01  5.0607571595580765e+01  5.0342515044434798e+01  5.0071925077345774e+01  4.9795226964242197e+01  4.9511882408998709e+01  4.9221388384346909e+01  4.8923276105229554e+01  4.8617110126307892e+01  4.8302487547642549e+01  4.7979037308000599e+01  4.7646419546585520e+01  4.7304325007894960e+01  4.6952474465141833e+01  4.6590618133770178e+01  4.6218535044648220e+01  4.5836032343169563e+01  4.5442944478854471e+01  4.5039132245351091e+01  4.4624481628711713e+01  4.4198902418741945e+01  4.3762326534766856e+01  4.3314706014207474e+01  4.2856010612169719e+01  4.2386224956873008e+01  4.1905345208295316e+01  4.1413375167362496e+01  4.0910321791275663e+01  4.0396190075117360e+01  3.9870977276912292e+01  3.9334666479461887e+01  3.8787219511217010e+01  3.8228569283896690e+01  3.7658611655117348e+01  3.7077196986863882e+01  3.6484121657916049e+01  3.5879119894334863e+01  3.5261856424253907e+01  3.4631920639619487e+01  3.3988823176262017e+01  3.3331996110432527e+01  3.2660798337264467e+01  3.1974528160053229e+01  3.1272445710244426e+01  3.0553808566143299e+01  2.9817924886994561e+01  2.9064229578202422e+01  2.8292390503449646e+01  2.7502453616804473e+01  2.6695038131890101e+01  2.5871595458531544e+01  2.5034748493917387e+01  2.4188730624307144e+01  2.3339945828080978e+01  2.2497671482436200e+01  2.1674922402449980e+01  2.0889486964677420e+01  2.0165134160339655e+01  1.9532978265428920e+01  1.9032981454737691e+01  1.8715576804579015e+01  1.8643307785826469e+01  1.8892421278294137e+01  5.2093987724048837e+01  5.3565235571976693e+01  5.5045925928295922e+01  5.6386560983034876e+01  5.7482714378643969e+01  5.8292333159630232e+01  5.8823434395418538e+01  5.9113090062255999e+01  5.9209078717510970e+01  5.9158356451119232e+01  5.9001551928748881e+01  5.8771326959126498e+01  5.8492728398270224e+01  5.8184338134931551e+01  5.7859589201983951e+01  5.7527967211913612e+01  5.7196003519054734e+01  5.6868053792843135e+01  5.6546889791454774e+01  5.6234140797143120e+01  5.5930619108279451e+01  5.56365583031