<?xml version="1.0"?>
<VTKFile type="UnstructuredGrid"  version="0.1"  >
<UnstructuredGrid>
<Piece  NumberOfPoints="10201" NumberOfCells="20000">
<Points>
<DataArray  type="Float64"  NumberOfComponents="3"  format="ascii">0 0 0  0.01 0 0  0.02 0 0  0.03 0 0  0.04 0 0  0.05 0 0  0.06 0 0  0.07000000000000001 0 0  0.08 0 0  0.09 0 0  0.1 0 0  0.11 0 0  0.12 0 0  0.13 0 0  0.14 0 0  0.15 0 0  0.16 0 0  0.17 0 0  0.18 0 0  0.19 0 0  0.2 0 0  0.21 0 0  0.22 0 0  0.23 0 0  0.24 0 0  0.25 0 0  0.26 0 0  0.27 0 0  0.28 0 0  0.29 0 0  0.3 0 0  0.31 0 0  0.32 0 0  0.33 0 0  0.34 0 0  0.35 0 0  0.36 0 0  0.37 0 0  0.38 0 0  0.39 0 0  0.4 0 0  0.41 0 0  0.42 0 0  0.43 0 0  0.44 0 0  0.45 0 0  0.46 0 0  0.47 0 0  0.48 0 0  0.49 0 0  0.5 0 0  0.51 0 0  0.52 0 0  0.53 0 0  0.54 0 0  0.55 0 0  0.5600000000000001 0 0  0.57 0 0  0.58 0 0  0.59 0 0  0.6 0 0  0.61 0 0  0.62 0 0  0.63 0 0  0.64 0 0  0.65 0 0  0.66 0 0  0.67 0 0  0.68 0 0  0.6899999999999999 0 0  0.7 0 0  0.71 0 0  0.72 0 0  0.73 0 0  0.74 0 0  0.75 0 0  0.76 0 0  0.77 0 0  0.78 0 0  0.79 0 0  0.8 0 0  0.8100000000000001 0 0  0.82 0 0  0.83 0 0  0.84 0 0  0.85 0 0  0.86 0 0  0.87 0 0  0.88 0 0  0.89 0 0  0.9 0 0  0.91 0 0  0.92 0 0  0.93 0 0  0.9399999999999999 0 0  0.95 0 0  0.96 0 0  0.97 0 0  0.98 0 0  0.99 0 0  1 0 0  0 0.01 0  0.01 0.01 0  0.02 0.01 0  0.03 0.01 0  0.04 0.01 0  0.05 0.01 0  0.06 0.01 0  0.07000000000000001 0.01 0  0.08 0.01 0  0.09 0.01 0  0.1 0.01 0  0.11 0.01 0  0.12 0.01 0  0.13 0.01 0  0.14 0.01 0  0.15 0.01 0  0.16 0.01 0  0.17 0.01 0  0.18 0.01 0  0.19 0.01 0  0.2 0.01 0  0.21 0.01 0  0.22 0.01 0  0.23 0.01 0  0.24 0.01 0  0.25 0.01 0  0.26 0.01 0  0.27 0.01 0  0.28 0.01 0  0.29 0.01 0  0.3 0.01 0  0.31 0.01 0  0.32 0.01 0  0.33 0.01 0  0.34 0.01 0  0.35 0.01 0  0.36 0.01 0  0.37 0.01 0  0.38 0.01 0  0.39 0.01 0  0.4 0.01 0  0.41 0.01 0  0.42 0.01 0  0.43 0.01 0  0.44 0.01 0  0.45 0.01 0  0.46 0.01 0  0.47 0.01 0  0.48 0.01 0  0.49 0.01 0  0.5 0.01 0  0.51 0.01 0  0.52 0.01 0  0.53 0.01 0  0.54 0.01 0  0.55 0.01 0  0.5600000000000001 0.01 0  0.57 0.01 0  0.58 0.01 0  0.59 0.01 0  0.6 0.01 0  0.61 0.01 0  0.62 0.01 0  0.63 0.01 0  0.64 0.01 0  0.65 0.01 0  0.66 0.01 0  0.67 0.01 0  0.68 0.01 0  0.6899999999999999 0.01 0  0.7 0.01 0  0.71 0.01 0  0.72 0.01 0  0.73 0.01 0  0.74 0.01 0  0.75 0.01 0  0.76 0.01 0  0.77 0.01 0  0.78 0.01 0  0.79 0.01 0  0.8 0.01 0  0.8100000000000001 0.01 0  0.82 0.01 0  0.83 0.01 0  0.84 0.01 0  0.85 0.01 0  0.86 0.01 0  0.87 0.01 0  0.88 0.01 0  0.89 0.01 0  0.9 0.01 0  0.91 0.01 0  0.92 0.01 0  0.93 0.01 0  0.9399999999999999 0.01 0  0.95 0.01 0  0.96 0.01 0  0.97 0.01 0  0.98 0.01 0  0.99 0.01 0  1 0.01 0  0 0.02 0  0.01 0.02 0  0.02 0.02 0  0.03 0.02 0  0.04 0.02 0  0.05 0.02 0  0.06 0.02 0  0.07000000000000001 0.02 0  0.08 0.02 0  0.09 0.02 0  0.1 0.02 0  0.11 0.02 0  0.12 0.02 0  0.13 0.02 0  0.14 0.02 0  0.15 0.02 0  0.16 0.02 0  0.17 0.02 0  0.18 0.02 0  0.19 0.02 0  0.2 0.02 0  0.21 0.02 0  0.22 0.02 0  0.23 0.02 0  0.24 0.02 0  0.25 0.02 0  0.26 0.02 0  0.27 0.02 0  0.28 0.02 0  0.29 0.02 0  0.3 0.02 0  0.31 0.02 0  0.32 0.02 0  0.33 0.02 0  0.34 0.02 0  0.35 0.02 0  0.36 0.02 0  0.37 0.02 0  0.38 0.02 0  0.39 0.02 0  0.4 0.02 0  0.41 0.02 0  0.42 0.02 0  0.43 0.02 0  0.44 0.02 0  0.45 0.02 0  0.46 0.02 0  0.47 0.02 0  0.48 0.02 0  0.49 0.02 0  0.5 0.02 0  0.51 0.02 0  0.52 0.02 0  0.53 0.02 0  0.54 0.02 0  0.55 0.02 0  0.5600000000000001 0.02 0  0.57 0.02 0  0.58 0.02 0  0.59 0.02 0  0.6 0.02 0  0.61 0.02 0  0.62 0.02 0  0.63 0.02 0  0.64 0.02 0  0.65 0.02 0  0.66 0.02 0  0.67 0.02 0  0.68 0.02 0  0.6899999999999999 0.02 0  0.7 0.02 0  0.71 0.02 0  0.72 0.02 0  0.73 0.02 0  0.74 0.02 0  0.75 0.02 0  0.76 0.02 0  0.77 0.02 0  0.78 0.02 0  0.79 0.02 0  0.8 0.02 0  0.8100000000000001 0.02 0  0.82 0.02 0  0.83 0.02 0  0.84 0.02 0  0.85 0.02 0  0.86 0.02 0  0.87 0.02 0  0.88 0.02 0  0.89 0.02 0  0.9 0.02 0  0.91 0.02 0  0.92 0.02 0  0.93 0.02 0  0.9399999999999999 0.02 0  0.95 0.02 0  0.96 0.02 0  0.97 0.02 0  0.98 0.02 0  0.99 0.02 0  1 0.02 0  0 0.03 0  0.01 0.03 0  0.02 0.03 0  0.03 0.03 0  0.04 0.03 0  0.05 0.03 0  0.06 0.03 0  0.07000000000000001 0.03 0  0.08 0.03 0  0.09 0.03 0  0.1 0.03 0  0.11 0.03 0  0.12 0.03 0  0.13 0.03 0  0.14 0.03 0  0.15 0.03 0  0.16 0.03 0  0.17 0.03 0  0.18 0.03 0  0.19 0.03 0  0.2 0.03 0  0.21 0.03 0  0.22 0.03 0  0.23 0.03 0  0.24 0.03 0  0.25 0.03 0  0.26 0.03 0  0.27 0.03 0  0.28 0.03 0  0.29 0.03 0  0.3 0.03 0  0.31 0.03 0  0.32 0.03 0  0.33 0.03 0  0.34 0.03 0  0.35 0.03 0  0.36 0.03 0  0.37 0.03 0  0.38 0.03 0  0.39 0.03 0  0.4 0.03 0  0.41 0.03 0  0.42 0.03 0  0.43 0.03 0  0.44 0.03 0  0.45 0.03 0  0.46 0.03 0  0.47 0.03 0  0.48 0.03 0  0.49 0.03 0  0.5 0.03 0  0.51 0.03 0  0.52 0.03 0  0.53 0.03 0  0.54 0.03 0  0.55 0.03 0  0.5600000000000001 0.03 0  0.57 0.03 0  0.58 0.03 0  0.59 0.03 0  0.6 0.03 0  0.61 0.03 0  0.62 0.03 0  0.63 0.03 0  0.64 0.03 0  0.65 0.03 0  0.66 0.03 0  0.67 0.03 0  0.68 0.03 0  0.6899999999999999 0.03 0  0.7 0.03 0  0.71 0.03 0  0.72 0.03 0  0.73 0.03 0  0.74 0.03 0  0.75 0.03 0  0.76 0.03 0  0.77 0.03 0  0.78 0.03 0  0.79 0.03 0  0.8 0.03 0  0.8100000000000001 0.03 0  0.82 0.03 0  0.83 0.03 0  0.84 0.03 0  0.85 0.03 0  0.86 0.03 0  0.87 0.03 0  0.88 0.03 0  0.89 0.03 0  0.9 0.03 0  0.91 0.03 0  0.92 0.03 0  0.93 0.03 0  0.9399999999999999 0.03 0  0.95 0.03 0  0.96 0.03 0  0.97 0.03 0  0.98 0.03 0  0.99 0.03 0  1 0.03 0  0 0.04 0  0.01 0.04 0  0.02 0.04 0  0.03 0.04 0  0.04 0.04 0  0.05 0.04 0  0.06 0.04 0  0.07000000000000001 0.04 0  0.08 0.04 0  0.09 0.04 0  0.1 0.04 0  0.11 0.04 0  0.12 0.04 0  0.13 0.04 0  0.14 0.04 0  0.15 0.04 0  0.16 0.04 0  0.17 0.04 0  0.18 0.04 0  0.19 0.04 0  0.2 0.04 0  0.21 0.04 0  0.22 0.04 0  0.23 0.04 0  0.24 0.04 0  0.25 0.04 0  0.26 0.04 0  0.27 0.04 0  0.28 0.04 0  0.29 0.04 0  0.3 0.04 0  0.31 0.04 0  0.32 0.04 0  0.33 0.04 0  0.34 0.04 0  0.35 0.04 0  0.36 0.04 0  0.37 0.04 0  0.38 0.04 0  0.39 0.04 0  0.4 0.04 0  0.41 0.04 0  0.42 0.04 0  0.43 0.04 0  0.44 0.04 0  0.45 0.04 0  0.46 0.04 0  0.47 0.04 0  0.48 0.04 0  0.49 0.04 0  0.5 0.04 0  0.51 0.04 0  0.52 0.04 0  0.53 0.04 0  0.54 0.04 0  0.55 0.04 0  0.5600000000000001 0.04 0  0.57 0.04 0  0.58 0.04 0  0.59 0.04 0  0.6 0.04 0  0.61 0.04 0  0.62 0.04 0  0.63 0.04 0  0.64 0.04 0  0.65 0.04 0  0.66 0.04 0  0.67 0.04 0  0.68 0.04 0  0.6899999999999999 0.04 0  0.7 0.04 0  0.71 0.04 0  0.72 0.04 0  0.73 0.04 0  0.74 0.04 0  0.75 0.04 0  0.76 0.04 0  0.77 0.04 0  0.78 0.04 0  0.79 0.04 0  0.8 0.04 0  0.8100000000000001 0.04 0  0.82 0.04 0  0.83 0.04 0  0.84 0.04 0  0.85 0.04 0  0.86 0.04 0  0.87 0.04 0  0.88 0.04 0  0.89 0.04 0  0.9 0.04 0  0.91 0.04 0  0.92 0.04 0  0.93 0.04 0  0.9399999999999999 0.04 0  0.95 0.04 0  0.96 0.04 0  0.97 0.04 0  0.98 0.04 0  0.99 0.04 0  1 0.04 0  0 0.05 0  0.01 0.05 0  0.02 0.05 0  0.03 0.05 0  0.04 0.05 0  0.05 0.05 0  0.06 0.05 0  0.07000000000000001 0.05 0  0.08 0.05 0  0.09 0.05 0  0.1 0.05 0  0.11 0.05 0  0.12 0.05 0  0.13 0.05 0  0.14 0.05 0  0.15 0.05 0  0.16 0.05 0  0.17 0.05 0  0.18 0.05 0  0.19 0.05 0  0.2 0.05 0  0.21 0.05 0  0.22 0.05 0  0.23 0.05 0  0.24 0.05 0  0.25 0.05 0  0.26 0.05 0  0.27 0.05 0  0.28 0.05 0  0.29 0.05 0  0.3 0.05 0  0.31 0.05 0  0.32 0.05 0  0.33 0.05 0  0.34 0.05 0  0.35 0.05 0  0.36 0.05 0  0.37 0.05 0  0.38 0.05 0  0.39 0.05 0  0.4 0.05 0  0.41 0.05 0  0.42 0.05 0  0.43 0.05 0  0.44 0.05 0  0.45 0.05 0  0.46 0.05 0  0.47 0.05 0  0.48 0.05 0  0.49 0.05 0  0.5 0.05 0  0.51 0.05 0  0.52 0.05 0  0.53 0.05 0  0.54 0.05 0  0.55 0.05 0  0.5600000000000001 0.05 0  0.57 0.05 0  0.58 0.05 0  0.59 0.05 0  0.6 0.05 0  0.61 0.05 0  0.62 0.05 0  0.63 0.05 0  0.64 0.05 0  0.65 0.05 0  0.66 0.05 0  0.67 0.05 0  0.68 0.05 0  0.6899999999999999 0.05 0  0.7 0.05 0  0.71 0.05 0  0.72 0.05 0  0.73 0.05 0  0.74 0.05 0  0.75 0.05 0  0.76 0.05 0  0.77 0.05 0  0.78 0.05 0  0.79 0.05 0  0.8 0.05 0  0.8100000000000001 0.05 0  0.82 0.05 0  0.83 0.05 0  0.84 0.05 0  0.85 0.05 0  0.86 0.05 0  0.87 0.05 0  0.88 0.05 0  0.89 0.05 0  0.9 0.05 0  0.91 0.05 0  0.92 0.05 0  0.93 0.05 0  0.9399999999999999 0.05 0  0.95 0.05 0  0.96 0.05 0  0.97 0.05 0  0.98 0.05 0  0.99 0.05 0  1 0.05 0  0 0.06 0  0.01 0.06 0  0.02 0.06 0  0.03 0.06 0  0.04 0.06 0  0.05 0.06 0  0.06 0.06 0  0.07000000000000001 0.06 0  0.08 0.06 0  0.09 0.06 0  0.1 0.06 0  0.11 0.06 0  0.12 0.06 0  0.13 0.06 0  0.14 0.06 0  0.15 0.06 0  0.16 0.06 0  0.17 0.06 0  0.18 0.06 0  0.19 0.06 0  0.2 0.06 0  0.21 0.06 0  0.22 0.06 0  0.23 0.06 0  0.24 0.06 0  0.25 0.06 0  0.26 0.06 0  0.27 0.06 0  0.28 0.06 0  0.29 0.06 0  0.3 0.06 0  0.31 0.06 0  0.32 0.06 0  0.33 0.06 0  0.34 0.06 0  0.35 0.06 0  0.36 0.06 0  0.37 0.06 0  0.38 0.06 0  0.39 0.06 0  0.4 0.06 0  0.41 0.06 0  0.42 0.06 0  0.43 0.06 0  0.44 0.06 0  0.45 0.06 0  0.46 0.06 0  0.47 0.06 0  0.48 0.06 0  0.49 0.06 0  0.5 0.06 0  0.51 0.06 0  0.52 0.06 0  0.53 0.06 0  0.54 0.06 0  0.55 0.06 0  0.5600000000000001 0.06 0  0.57 0.06 0  0.58 0.06 0  0.59 0.06 0  0.6 0.06 0  0.61 0.06 0  0.62 0.06 0  0.63 0.06 0  0.64 0.06 0  0.65 0.06 0  0.66 0.06 0  0.67 0.06 0  0.68 0.06 0  0.6899999999999999 0.06 0  0.7 0.06 0  0.71 0.06 0  0.72 0.06 0  0.73 0.06 0  0.74 0.06 0  0.75 0.06 0  0.76 0.06 0  0.77 0.06 0  0.78 0.06 0  0.79 0.06 0  0.8 0.06 0  0.8100000000000001 0.06 0  0.82 0.06 0  0.83 0.06 0  0.84 0.06 0  0.85 0.06 0  0.86 0.06 0  0.87 0.06 0  0.88 0.06 0  0.89 0.06 0  0.9 0.06 0  0.91 0.06 0  0.92 0.06 0  0.93 0.06 0  0.9399999999999999 0.06 0  0.95 0.06 0  0.96 0.06 0  0.97 0.06 0  0.98 0.06 0  0.99 0.06 0  1 0.06 0  0 0.07000000000000001 0  0.01 0.07000000000000001 0  0.02 0.07000000000000001 0  0.03 0.07000000000000001 0  0.04 0.07000000000000001 0  0.05 0.07000000000000001 0  0.06 0.07000000000000001 0  0.07000000000000001 0.07000000000000001 0  0.08 0.07000000000000001 0  0.09 0.07000000000000001 0  0.1 0.07000000000000001 0  0.11 0.07000000000000001 0  0.12 0.07000000000000001 0  0.13 0.07000000000000001 0  0.14 0.07000000000000001 0  0.15 0.07000000000000001 0  0.16 0.07000000000000001 0  0.17 0.0700
[...]
<PointData  Vectors="f_803"> 
<DataArray  type="Float64"  Name="f_803"  NumberOfComponents="3" format="ascii">0.0000000000000000e+00 0.0000000000000000e+00 0.0000000000000000e+00  1.4013528823218636e-03 9.8628133739579412e-04 0.0000000000000000e+00  2.3632716912712266e-03 1.6594326512709271e-03 0.0000000000000000e+00  3.2138816113974449e-03 2.2344867665776784e-03 0.0000000000000000e+00  3.9988643997354804e-03 2.7496309355013078e-03 0.0000000000000000e+00  4.7399256731089981e-03 3.2203166650036762e-03 0.0000000000000000e+00  5.4489219942950948e-03 3.6555360752531124e-03 0.0000000000000000e+00  6.1332761126446592e-03 4.0611430558112737e-03 0.0000000000000000e+00  6.7980304395900103e-03 4.4412761294245987e-03 0.0000000000000000e+00  7.4468056492520895e-03 4.7990346876461880e-03 0.0000000000000000e+00  8.0823074179189706e-03 5.1368404580681357e-03 0.0000000000000000e+00  8.7066189327285326e-03 5.4566479728386137e-03 0.0000000000000000e+00  9.3213811704469258e-03 5.7600753582179596e-03 0.0000000000000000e+00  9.9279098290138337e-03 6.0484898559430029e-03 0.0000000000000000e+00  1.0527274352911727e-02 6.3230660795360527e-03 0.0000000000000000e+00  1.1120353179141538e-02 6.5848270527316764e-03 0.0000000000000000e+00  1.1707873471179858e-02 6.8346739400870615e-03 0.0000000000000000e+00  1.2290440394984795e-02 7.0734081016909410e-03 0.0000000000000000e+00  1.2868559142849052e-02 7.3017477879191769e-03 0.0000000000000000e+00  1.3442651803920135e-02 7.5203409985343285e-03 0.0000000000000000e+00  1.4013070493748921e-02 7.7297755372778615e-03 0.0000000000000000e+00  1.4580107716472068e-02 7.9305869764362772e-03 0.0000000000000000e+00  1.5144004645245866e-02 8.1232650370332577e-03 0.0000000000000000e+00  1.5704957813022561e-02 8.3082587492967694e-03 0.0000000000000000e+00  1.6263124572949025e-02 8.4859806608212577e-03 0.0000000000000000e+00  1.6818627594789536e-02 8.6568102915237539e-03 0.0000000000000000e+00  1.7371558597705943e-02 8.8210969856591676e-03 0.0000000000000000e+00  1.7921981472000491e-02 8.9791622757099364e-03 0.0000000000000000e+00  1.8469934907457956e-02 9.1313018468672912e-03 0.0000000000000000e+00  1.9015434619972214e-02 9.2777871713569191e-03 0.0000000000000000e+00  1.9558475248655949e-02 9.4188668671712668e-03 0.0000000000000000e+00  2.0099031980837578e-02 9.5547678245628577e-03 0.0000000000000000e+00  2.0637061951011115e-02 9.6856961350089456e-03 0.0000000000000000e+00  2.1172505451029347e-02 9.8118378506383882e-03 0.0000000000000000e+00  2.1705286981986958e-02 9.9333595968305530e-03 0.0000000000000000e+00  2.2235316172860509e-02 1.0050409056520227e-02 0.0000000000000000e+00  2.2762488586715895e-02 1.0163115341410116e-02 0.0000000000000000e+00  2.3286686431903909e-02 1.0271589262620180e-02 0.0000000000000000e+00  2.3807779192953661e-02 1.0375923511137166e-02 0.0000000000000000e+00  2.4325624193693655e-02 1.0476192756673823e-02 0.0000000000000000e+00  2.4840067103374396e-02 1.0572453672108531e-02 0.0000000000000000e+00  2.5350942395145796e-02 1.0664744889497767e-02 0.0000000000000000e+00  2.5858073765096946e-02 1.0753086892682742e-02 0.0000000000000000e+00  2.6361274519138934e-02 1.0837481850710292e-02 0.0000000000000000e+00  2.6860347934267895e-02 1.0917913395622031e-02 0.0000000000000000e+00  2.7355087600150537e-02 1.0994346347622339e-02 0.0000000000000000e+00  2.7845277746506317e-02 1.1066726390182061e-02 0.0000000000000000e+00  2.8330693561396832e-02 1.1134979697267204e-02 0.0000000000000000e+00  2.8811101505263195e-02 1.1199012514583556e-02 0.0000000000000000e+00  2.9286259625355839e-02 1.1258710696495203e-02 0.0000000000000000e+00  2.9755917875080782e-02 1.1313939200090748e-02 0.0000000000000000e+00  3.0219818442722216e-02 1.1364541537747441e-02 0.0000000000000000e+00  3.0677696093996305e-02 1.1410339189457937e-02 0.0000000000000000e+00  3.1129278532938641e-02 1.1451130976151318e-02 0.0000000000000000e+00  3.1574286785722959e-02 1.1486692395249220e-02 0.0000000000000000e+00  3.2012435612153965e-02 1.1516774919752183e-02 0.0000000000000000e+00  3.2443433949767113e-02 1.1541105262255847e-02 0.0000000000000000e+00  3.2866985395706934e-02 1.1559384605448132e-02 0.0000000000000000e+00  3.3282788731842754e-02 1.1571287800847076e-02 0.0000000000000000e+00  3.3690538498913146e-02 1.1576462537806972e-02 0.0000000000000000e+00  3.4089925625883311e-02 1.1574528485154455e-02 0.0000000000000000e+00  3.4480638121139585e-02 1.1565076408228457e-02 0.0000000000000000e+00  3.4862361832651130e-02 1.1547667264596851e-02 0.0000000000000000e+00  3.5234781284795354e-02 1.1521831282321079e-02 0.0000000000000000e+00  3.5597580600185509e-02 1.1487067025358094e-02 0.0000000000000000e+00  3.5950444515552911e-02 1.1442840451542967e-02 0.0000000000000000e+00  3.6293059501541942e-02 1.1388583969613477e-02 0.0000000000000000e+00  3.6625114997174274e-02 1.1323695502947066e-02 0.0000000000000000e+00  3.6946304770743559e-02 1.1247537569119323e-02 0.0000000000000000e+00  3.7256328420027331e-02 1.1159436386108872e-02 0.0000000000000000e+00  3.7554893025960538e-02 1.1058681018017822e-02 0.0000000000000000e+00  3.7841714975321038e-02 1.0944522575624402e-02 0.0000000000000000e+00  3.8116521969552369e-02 1.0816173490018522e-02 0.0000000000000000e+00  3.8379055238608864e-02 1.0672806881103145e-02 0.0000000000000000e+00  3.8629071980677762e-02 1.0513556047012294e-02 0.0000000000000000e+00  3.8866348050830821e-02 1.0337514105672520e-02 0.0000000000000000e+00  3.9090680924112359e-02 1.0143733826046228e-02 0.0000000000000000e+00  3.9301892961297276e-02 9.9312276943291419e-03 0.0000000000000000e+00  3.9499835008573243e-02 9.6989682699052376e-03 0.0000000000000000e+00  3.9684390365718476e-02 9.4458888976807868e-03 0.0000000000000000e+00  3.9855479160953541e-02 9.1708848581756111e-03 0.0000000000000000e+00  4.0013063174491437e-02 8.8728150553098670e-03 0.0000000000000000e+00  4.0157151156797334e-02 8.5505043653563272e-03 0.0000000000000000e+00  4.0287804691491250e-02 8.2027468006257154e-03 0.0000000000000000e+00  4.0405144656305132e-02 7.8283096803202206e-03 0.0000000000000000e+00  4.0509358337885805e-02 7.4259390517003952e-03 0.0000000000000000e+00  4.0600707256325801e-02 6.9943666716408472e-03 0.0000000000000000e+00  4.0679535751065546e-02 6.5323189480794809e-03 0.0000000000000000e+00  4.0746280367608141e-02 6.0385283620062501e-03 0.0000000000000000e+00  4.0801480057844806e-02 5.5117480571943494e-03 0.0000000000000000e+00  4.0845787153915139e-02 4.9507705176309704e-03 0.0000000000000000e+00  4.0879978974383953e-02 4.3544515836515087e-03 0.0000000000000000e+00  4.0904969729603759e-02 3.7217415375841206e-03 0.0000000000000000e+00  4.0921822025024437e-02 3.0517256987174558e-03 0.0000000000000000e+00  4.0931756536393658e-02 2.3436780342288451e-03 0.0000000000000000e+00  4.0936156942826971e-02 1.5971329166521366e-03 0.0000000000000000e+00  4.0936563961768091e-02 8.1198260248036577e-04 0.0000000000000000e+00  4.0934644667007095e-02 -1.1388672436427199e-05 0.0000000000000000e+00  4.0932103105061450e-02 -8.7192112710187146e-04 0.0000000000000000e+00  4.0930438641032921e-02 -1.7676518800514923e-03 0.0000000000000000e+00  4.0930172056689390e-02 -2.6957437780439296e-03 0.0000000000000000e+00  0.0000000000000000e+00 0.0000000000000000e+00 0.0000000000000000e+00  9.3979470917665759e-04 7.1053322330670566e-04 0.0000000000000000e+00  1.8797698137008670e-03 1.3959470140342861e-03 0.0000000000000000e+00  2.7496785361400384e-03 1.9896651385209129e-03 0.0000000000000000e+00  3.5603970155090223e-03 2.5190232339684956e-03 0.0000000000000000e+00  4.3266338413784772e-03 3.0004786012639037e-03 0.0000000000000000e+00  5.0589060668722171e-03 3.4440639082735608e-03 0.0000000000000000e+00  5.7645295680265980e-03 3.8563401935243313e-03 0.0000000000000000e+00  6.4487201901627465e-03 4.2419071444830597e-03 0.0000000000000000e+00  7.1153172163013218e-03 4.6041722683068404e-03 0.0000000000000000e+00  7.7672294324763365e-03 4.9457703390981197e-03 0.0000000000000000e+00  8.4067146670493021e-03 5.2688081694306924e-03 0.0000000000000000e+00  9.0355606208016945e-03 5.5750160071070280e-03 0.0000000000000000e+00  9.6552057647493993e-03 5.8658458194780607e-03 0.0000000000000000e+00  1.0266822672255623e-02 6.1425377147666035e-03 0.0000000000000000e+00  1.0871377045042905e-02 6.4061663661654777e-03 0.0000000000000000e+00  1.1469670542661721e-02 6.6576743949552913e-03 0.0000000000000000e+00  1.2062372528205818e-02 6.8978969648727535e-03 0.0000000000000000e+00  1.2650044045905237e-02 7.1275802826024845e-03 0.0000000000000000e+00  1.3233156236761006e-02 7.3473957667113147e-03 0.0000000000000000e+00  1.3812104694743463e-02 7.5579510695746432e-03 0.0000000000000000e+00  1.4387220808639472e-02 7.7597987679868773e-03 0.0000000000000000e+00  1.4958780830467353e-02 7.9534432963242474e-03 0.0000000000000000e+00  1.5527013204925649e-02 8.1393465337904793e-03 0.0000000000000000e+00  1.6092104551557358e-02 8.3179323459617108e-03 0.0000000000000000e+00  1.6654204590854423e-02 8.4895903030483225e-03 0.0000000000000000e+00  1.7213430233732313e-02 8.6546787419657968e-03 0.0000000000000000e+00  1.7769869001749993e-02 8.8135272993415982e-03 0.0000000000000000e+00  1.8323581907204879e-02 8.9664390132955536e-03 0.0000000000000000e+00  1.8874605893787845e-02 9.1136920700823718e-03 0.0000000000000000e+00  1.9422955917089955e-02 9.2555412553368809e-03 0.0000000000000000e+00  1.9968626727992413e-02 9.3922191572376069e-03 0.0000000000000000e+00  2.0511594409495588e-02 9.5239371593585712e-03 0.0000000000000000e+00  2.1051817707883207e-02 9.6508862535805897e-03 0.0000000000000000e+00  2.1589239191581778e-02 9.7732376976403211e-03 0.0000000000000000e+00  2.2123786265147279e-02 9.8911435373265633e-03 0.0000000000000000e+00  2.2655372061120279e-02 1.0004737009699118e-02 0.0000000000000000e+00  2.3183896228753841e-02 1.0114132840795995e-02 0.0000000000000000e+00  2.3709245635627974e-02 1.0219427448946756e-02 0.0000000000000000e+00  2.4231294995758813e-02 1.0320699062907099e-02 0.0000000000000000e+00  2.4749907435869148e-02 1.0418007762476993e-02 0.0000000000000000e+00  2.5264935009915949e-02 1.0511395447991817e-02 0.0000000000000000e+00  2.5776219170698188e-02 1.0600885744029264e-02 0.0000000000000000e+00  2.6283591206338424e-02 1.0686483841811451e-02 0.0000000000000000e+00  2.6786872648596523e-02 1.0768176284066597e-02 0.0000000000000000e+00  2.7285875659306059e-02 1.0845930695526322e-02 0.0000000000000000e+00  2.7780403400688464e-02 1.0919695461747337e-02 0.0000000000000000e+00  2.8270250394880639e-02 1.0989399358548113e-02 0.0000000000000000e+00  2.8755202877687801e-02 1.1054951134027456e-02 0.0000000000000000e+00  2.9235039151332749e-02 1.1116239044874835e-02 0.0000000000000000e+00  2.9709529940805765e-02 1.1173130348481376e-02 0.0000000000000000e+00  3.0178438758314760e-02 1.1225470752215727e-02 0.0000000000000000e+00  3.0641522280288519e-02 1.1273083821130287e-02 0.0000000000000000e+00  3.1098530741390847e-02 1.1315770345313156e-02 0.0000000000000000e+00  3.1549208350057527e-02 1.1353307668097111e-02 0.0000000000000000e+00  3.1993293730166954e-02 1.1385448976377662e-02 0.0000000000000000e+00  3.2430520393597673e-02 1.1411922554382678e-02 0.0000000000000000e+00  3.2860617248611265e-02 1.1432431002374715e-02 0.0000000000000000e+00  3.3283309149228030e-02 1.1446650421962164e-02 0.0000000000000000e+00  3.3698317491030687e-02 1.1454229569948770e-02 0.0000000000000000e+00  3.4105360859148212e-02 1.1454788982970896e-02 0.0000000000000000e+00  3.4504155734526837e-02 1.1447920075569142e-02 0.0000000000000000e+00  3.4894417265003447e-02 1.1433184214822234e-02 0.0000000000000000e+00  3.5275860108149149e-02 1.1410111775253499e-02 0.0000000000000000e+00  3.5648199353356828e-02 1.1378201178417823e-02 0.0000000000000000e+00  3.6011151531206417e-02 1.1336917922411895e-02 0.0000000000000000e+00  3.6364435718761384e-02 1.1285693607544316e-02 0.0000000000000000e+00  3.6707774750127480e-02 1.1223924965588451e-02 0.0000000000000000e+00  3.7040896542351293e-02 1.1150972901452205e-02 0.0000000000000000e+00  3.7363535547544090e-02 1.1066161557785316e-02 0.0000000000000000e+00  3.7675434343003779e-02 1.0968777415058324e-02 0.0000000000000000e+00  3.7976345372052939e-02 1.0858068442059408e-02 0.0000000000000000e+00  3.8266032849340451e-02 1.0733243314654426e-02 0.0000000000000000e+00  3.8544274845435017e-02 1.0593470724147656e-02 0.0000000000000000e+00  3.8810865566687336e-02 1.0437878800808677e-02 0.0000000000000000e+00  3.9065617847513924e-02 1.0265554683267248e-02 0.0000000000000000e+00  3.9308365873449623e-02 1.0075544270750240e-02 0.0000000000000000e+00  3.9538968154463561e-02 9.8668522028361738e-03 0.0000000000000000e+00  3.9757310769076043e-02 9.6384421209107923e-03 0.0000000000000000e+00  3.9963310900628081e-02 9.3892372773240283e-03 0.0000000000000000e+00  4.0156920687475006e-02 9.1181215730352285e-03 0.0000000000000000e+00  4.0338131408636436e-02 8.8239411231797130e-03 0.0000000000000000e+00  4.0506978025143671e-02 8.5055064736959309e-03 0.0000000000000000e+00  4.0663544094370854e-02 8.1615956225698644e-03 0.0000000000000000e+00  4.0807967069099046e-02 7.7909580386665150e-03 0.0000000000000000e+00  4.0940443983507220e-02 7.3923199227467302e-03 0.0000000000000000e+00  4.1061237512485506e-02 6.9643910237090871e-03 0.0000000000000000e+00  4.1170682365119296e-02 6.5058734150096357e-03 0.0000000000000000e+00  4.1269191932307860e-02 6.0154727614385919e-03 0.0000000000000000e+00  4.1357265043217926e-02 5.4919127797531586e-03 0.0000000000000000e+00  4.1435492580834468e-02 4.9339538407305646e-03 0.0000000000000000e+00  4.1504563538614606e-02 4.3404170104184275e-03 0.0000000000000000e+00  4.1565269826783366e-02 3.7102153411078327e-03 0.0000000000000000e+00  4.1618508688160402e-02 3.0423949889758621e-03 0.0000000000000000e+00  4.1665280843164065e-02 2.3361899030067130e-03 0.0000000000000000e+00  4.1706681270986631e-02 1.5910956290096873e-03 0.0000000000000000e+00  4.1743877637917426e-02 8.0697050292927977e-04 0.0000000000000000e+00  4.1778068931253715e-02 -1.5823796844669104e-05 0.0000000000000000e+00  4.1810416306437490e-02 -8.7622822374424161e-04 0.0000000000000000e+00  4.1841952451780622e-02 -1.7722431923136240e-03 0.0000000000000000e+00  4.1873486263610524e-02 -2.7007219193980300e-03 0.0000000000000000e+00  0.0000000000000000e+00 0.0000000000000000e+00 0.0000000000000000e+00  7.8875668342258095e-04 5.7684407050798776e-04 0.0000000000000000e+00  1.6136709068579678e-03 1.1911000302065047e-03 0.0000000000000000e+00  2.4340448206821353e-03 1.7695117731288241e-03 0.0000000000000000e+00  3.2283392537043351e-03 2.2991471601987146e-03 0.0000000000000000e+00  3.9931883364645220e-03 2.7850048661260574e-03 0.0000000000000000e+00  4.7310600563788682e-03 3.2337758050492208e-03 0.0000000000000000e+00  5.4455843585484685e-03 3.6510280050983069e-03 0.0000000000000000e+00  6.1401931902118371e-03 4.0410907750647006e-03 0.0000000000000000e+00  6.8178169742796300e-03 4.4073347226499067e-03 0.0000000000000000e+00  7.4808834806153433e-03 4.7524321159011741e-03 0.0000000000000000e+00  8.1313904140489814e-03 5.0785470157295219e-03 0.0000000000000000e+00  8.7709846630423492e-03 5.3874676769047397e-03 0.0000000000000000e+00  9.4010306897405940e-03 5.6806986668838568e-03 0.0000000000000000e+00  1.0022665503027188e-02 5.9595258468035702e-03 0.0000000000000000e+00  1.0636841796620162e-02 6.2250630529492807e-03 0.0000000000000000e+00  1.1244361605144488e-02 6.4782862729602930e-03 0.0000000000000000e+00  1.1845902623183779e-02 6.7200591248488210e-03 0.0000000000000000e+00  1.2442038911840175e-02 6.9511521738056976e-03 0.0000000000000000e+00  1.3033257316296865e-02 7.1722578025121770e-03 0.0000000000000000e+00  1.3619970592422799e-02 7.3840018168337173e-03 0.0000000000000000e+00  1.4202527991572813e-02 7.5869526153354346e-03 0.0000000000000000e+00  1.4781223866927335e-02 7.7816285130700184e-03 0.0000000000000000e+00  1.5356304727165088e-02 7.9685036471104885e-03 0.0000000000000000e+00  1.5927975061506425e-02 8.1480127778603556e-03 0.0000000000000000e+00  1.6496402184634183e-02 8.3205552199826990e-03 0.0000000000000000e+00  1.7061720293618212e-02 8.4864980792709929e-03 0.0000000000000000e+00  1.7624033886596741e-02 8.6461789299604758e-03 0.0000000000000000e+00  1.8183420660889481e-02 8.7999080361776411e-03 0.0000000000000000e+00  1.8739933983747011e-02 8.9479701982664566e-03 0.0000000000000000e+00  1.9293605010133167e-02 9.0906262874275272e-03 0.0000000000000000e+00  1.9844444507377459e-02 9.2281145189270653e-03 0.0000000000000000e+00  2.0392444435178819e-02 9.3606515039978168e-03 0.0000000000000000e+00  2.0937579320528969e-02 9.4884331126861027e-03 0.0000000000000000e+00  2.1479807460081202e-02 9.6116351737404286e-03 0.0000000000000000e+00  2.2019071976891458e-02 9.7304140327752631e-03 0.0000000000000000e+00  2.2555301753985599e-02 9.8449069860789083e-03 0.0000000000000000e+00  2.3088412263611958e-02 9.9552326043370141e-03 0.0000000000000000e+00  2.3618306308137972e-02 1.0061490958049457e-02 0.0000000000000000e+00  2.4144874686201811e-02 1.0163763754392251e-02 0.0000000000000000e+00  2.4667996795819491e-02 1.0262114393628083e-02 0.0000000000000000e+00  2.5187541184595350e-02 1.0356587951815016e-02 0.0000000000000000e+00  2.5703366055914934e-02 1.0447211095451931e-02 0.0000000000000000e+00  2.6215319738967058e-02 1.0533991932779921e-02 0.0000000000000000e+00  2.6723241129600207e-02 1.0616919805701926e-02 0.0000000000000000e+00  2.7226960108336057e-02 1.0695965025653084e-02 0.0000000000000000e+00  2.7726297941314103e-02 1.0771078556237882e-02 0.0000000000000000e+00  2.8221067669503067e-02 1.0842191645023383e-02 0.0000000000000000e+00  2.8711074491170475e-02 1.0909215406531631e-02 0.0000000000000000e+00  2.9196116142341667e-02 1.0972040358195085e-02 0.0000000000000000e+00  2.9675983279784362e-02 1.1030535910823060e-02 0.0000000000000000e+00  3.0150459870926401e-02 1.1084549814962832e-02 0.0000000000000000e+00  3.0619323595036562e-02 1.1133907564428794e-02 0.0000000000000000e+00  3.1082346259971701e-02 1.1178411758207909e-02 0.0000000000000000e+00  3.1539294238810196e-02 1.1217841421934003e-02 0.0000000000000000e+00  3.1989928930749749e-02 1.1251951290152143e-02 0.0000000000000000e+00  3.2434007250745266e-02 1.1280471050673391e-02 0.0000000000000000e+00  3.2871282152494609e-02 1.1303104552448639e-02 0.0000000000000000e+00  3.3301503189549726e-02 1.1319528978573476e-02 0.0000000000000000e+00  3.3724417119531787e-02 1.1329393986278750e-02 0.0000000000000000e+00  3.4139768556667095e-02 1.1332320816071648e-02 0.0000000000000000e+00  3.4547300678126794e-02 1.1327901372576199e-02 0.0000000000000000e+00  3.4946755989956502e-02 1.1315697280094040e-02 0.0000000000000000e+00  3.5337877158715288e-02 1.1295238916475558e-02 0.0000000000000000e+00  3.5720407915308366e-02 1.1266024429578560e-02 0.0000000000000000e+00  3.6094094037894313e-02 1.1227518741412541e-02 0.0000000000000000e+00  3.6458684421172526e-02 1.1179152546049991e-02 0.0000000000000000e+00  3.6813932239809354e-02 1.1120321308557782e-02 0.0000000000000000e+00  3.7159596214237110e-02 1.1050384273602568e-02 0.0000000000000000e+00  3.7495441987553321e-02 1.0968663494056903e-02 0.0000000000000000e+00  3.7821243622750148e-02 1.0874442891936113e-02 0.0000000000000000e+00  3.8136785230004751e-02 1.0766967366398667e-02 0.0000000000000000e+00  3.8441862734241723e-02 1.0645441966434297e-02 0.0000000000000000e+00  3.8736285793614274e-02 1.0509031149355221e-02 0.0000000000000000e+00  3.9019879879908875e-02 1.0356858150435773e-02 0.0000000000000000e+00  3.9292488532107428e-02 1.0188004494195074e-02 0.0000000000000000e+00  3.9553975794375647e-02 1.0001509684115801e-02 0.0000000000000000e+00  3.9804228849491342e-02 9.7963711153354512e-03 0.0000000000000000e+00  4.0043160858044768e-02 9.5715442644249762e-03 0.0000000000000000e+00  4.0270714012456486e-02 9.3259432222905433e-03 0.0000000000000000e+00  4.0486862812693307e-02 9.0584416511755930e-03 0.0000000000000000e+00  4.0691617567163975e-02 8.7678742656084070e-03 0.0000000000000000e+00  4.