<?xml version="1.0"?>
<VTKFile type="UnstructuredGrid"  version="0.1"  >
<UnstructuredGrid>
<Piece  NumberOfPoints="40401" NumberOfCells="80000">
<Points>
<DataArray  type="Float64"  NumberOfComponents="3"  format="ascii">0 0 0  0.005 0 0  0.01 0 0  0.015 0 0  0.02 0 0  0.025 0 0  0.03 0 0  0.035 0 0  0.04 0 0  0.045 0 0  0.05 0 0  0.055 0 0  0.06 0 0  0.065 0 0  0.07000000000000001 0 0  0.075 0 0  0.08 0 0  0.08500000000000001 0 0  0.09 0 0  0.095 0 0  0.1 0 0  0.105 0 0  0.11 0 0  0.115 0 0  0.12 0 0  0.125 0 0  0.13 0 0  0.135 0 0  0.14 0 0  0.145 0 0  0.15 0 0  0.155 0 0  0.16 0 0  0.165 0 0  0.17 0 0  0.175 0 0  0.18 0 0  0.185 0 0  0.19 0 0  0.195 0 0  0.2 0 0  0.205 0 0  0.21 0 0  0.215 0 0  0.22 0 0  0.225 0 0  0.23 0 0  0.235 0 0  0.24 0 0  0.245 0 0  0.25 0 0  0.255 0 0  0.26 0 0  0.265 0 0  0.27 0 0  0.275 0 0  0.28 0 0  0.285 0 0  0.29 0 0  0.295 0 0  0.3 0 0  0.305 0 0  0.31 0 0  0.315 0 0  0.32 0 0  0.325 0 0  0.33 0 0  0.335 0 0  0.34 0 0  0.345 0 0  0.35 0 0  0.355 0 0  0.36 0 0  0.365 0 0  0.37 0 0  0.375 0 0  0.38 0 0  0.385 0 0  0.39 0 0  0.395 0 0  0.4 0 0  0.405 0 0  0.41 0 0  0.415 0 0  0.42 0 0  0.425 0 0  0.43 0 0  0.435 0 0  0.44 0 0  0.445 0 0  0.45 0 0  0.455 0 0  0.46 0 0  0.465 0 0  0.47 0 0  0.475 0 0  0.48 0 0  0.485 0 0  0.49 0 0  0.495 0 0  0.5 0 0  0.505 0 0  0.51 0 0  0.515 0 0  0.52 0 0  0.525 0 0  0.53 0 0  0.535 0 0  0.54 0 0  0.545 0 0  0.55 0 0  0.555 0 0  0.5600000000000001 0 0  0.5649999999999999 0 0  0.57 0 0  0.575 0 0  0.58 0 0  0.585 0 0  0.59 0 0  0.595 0 0  0.6 0 0  0.605 0 0  0.61 0 0  0.615 0 0  0.62 0 0  0.625 0 0  0.63 0 0  0.635 0 0  0.64 0 0  0.645 0 0  0.65 0 0  0.655 0 0  0.66 0 0  0.665 0 0  0.67 0 0  0.675 0 0  0.68 0 0  0.6850000000000001 0 0  0.6899999999999999 0 0  0.695 0 0  0.7 0 0  0.705 0 0  0.71 0 0  0.715 0 0  0.72 0 0  0.725 0 0  0.73 0 0  0.735 0 0  0.74 0 0  0.745 0 0  0.75 0 0  0.755 0 0  0.76 0 0  0.765 0 0  0.77 0 0  0.775 0 0  0.78 0 0  0.785 0 0  0.79 0 0  0.795 0 0  0.8 0 0  0.805 0 0  0.8100000000000001 0 0  0.8149999999999999 0 0  0.82 0 0  0.825 0 0  0.83 0 0  0.835 0 0  0.84 0 0  0.845 0 0  0.85 0 0  0.855 0 0  0.86 0 0  0.865 0 0  0.87 0 0  0.875 0 0  0.88 0 0  0.885 0 0  0.89 0 0  0.895 0 0  0.9 0 0  0.905 0 0  0.91 0 0  0.915 0 0  0.92 0 0  0.925 0 0  0.93 0 0  0.9350000000000001 0 0  0.9399999999999999 0 0  0.945 0 0  0.95 0 0  0.955 0 0  0.96 0 0  0.965 0 0  0.97 0 0  0.975 0 0  0.98 0 0  0.985 0 0  0.99 0 0  0.995 0 0  1 0 0  0 0.005 0  0.005 0.005 0  0.01 0.005 0  0.015 0.005 0  0.02 0.005 0  0.025 0.005 0  0.03 0.005 0  0.035 0.005 0  0.04 0.005 0  0.045 0.005 0  0.05 0.005 0  0.055 0.005 0  0.06 0.005 0  0.065 0.005 0  0.07000000000000001 0.005 0  0.075 0.005 0  0.08 0.005 0  0.08500000000000001 0.005 0  0.09 0.005 0  0.095 0.005 0  0.1 0.005 0  0.105 0.005 0  0.11 0.005 0  0.115 0.005 0  0.12 0.005 0  0.125 0.005 0  0.13 0.005 0  0.135 0.005 0  0.14 0.005 0  0.145 0.005 0  0.15 0.005 0  0.155 0.005 0  0.16 0.005 0  0.165 0.005 0  0.17 0.005 0  0.175 0.005 0  0.18 0.005 0  0.185 0.005 0  0.19 0.005 0  0.195 0.005 0  0.2 0.005 0  0.205 0.005 0  0.21 0.005 0  0.215 0.005 0  0.22 0.005 0  0.225 0.005 0  0.23 0.005 0  0.235 0.005 0  0.24 0.005 0  0.245 0.005 0  0.25 0.005 0  0.255 0.005 0  0.26 0.005 0  0.265 0.005 0  0.27 0.005 0  0.275 0.005 0  0.28 0.005 0  0.285 0.005 0  0.29 0.005 0  0.295 0.005 0  0.3 0.005 0  0.305 0.005 0  0.31 0.005 0  0.315 0.005 0  0.32 0.005 0  0.325 0.005 0  0.33 0.005 0  0.335 0.005 0  0.34 0.005 0  0.345 0.005 0  0.35 0.005 0  0.355 0.005 0  0.36 0.005 0  0.365 0.005 0  0.37 0.005 0  0.375 0.005 0  0.38 0.005 0  0.385 0.005 0  0.39 0.005 0  0.395 0.005 0  0.4 0.005 0  0.405 0.005 0  0.41 0.005 0  0.415 0.005 0  0.42 0.005 0  0.425 0.005 0  0.43 0.005 0  0.435 0.005 0  0.44 0.005 0  0.445 0.005 0  0.45 0.005 0  0.455 0.005 0  0.46 0.005 0  0.465 0.005 0  0.47 0.005 0  0.475 0.005 0  0.48 0.005 0  0.485 0.005 0  0.49 0.005 0  0.495 0.005 0  0.5 0.005 0  0.505 0.005 0  0.51 0.005 0  0.515 0.005 0  0.52 0.005 0  0.525 0.005 0  0.53 0.005 0  0.535 0.005 0  0.54 0.005 0  0.545 0.005 0  0.55 0.005 0  0.555 0.005 0  0.5600000000000001 0.005 0  0.5649999999999999 0.005 0  0.57 0.005 0  0.575 0.005 0  0.58 0.005 0  0.585 0.005 0  0.59 0.005 0  0.595 0.005 0  0.6 0.005 0  0.605 0.005 0  0.61 0.005 0  0.615 0.005 0  0.62 0.005 0  0.625 0.005 0  0.63 0.005 0  0.635 0.005 0  0.64 0.005 0  0.645 0.005 0  0.65 0.005 0  0.655 0.005 0  0.66 0.005 0  0.665 0.005 0  0.67 0.005 0  0.675 0.005 0  0.68 0.005 0  0.6850000000000001 0.005 0  0.6899999999999999 0.005 0  0.695 0.005 0  0.7 0.005 0  0.705 0.005 0  0.71 0.005 0  0.715 0.005 0  0.72 0.005 0  0.725 0.005 0  0.73 0.005 0  0.735 0.005 0  0.74 0.005 0  0.745 0.005 0  0.75 0.005 0  0.755 0.005 0  0.76 0.005 0  0.765 0.005 0  0.77 0.005 0  0.775 0.005 0  0.78 0.005 0  0.785 0.005 0  0.79 0.005 0  0.795 0.005 0  0.8 0.005 0  0.805 0.005 0  0.8100000000000001 0.005 0  0.8149999999999999 0.005 0  0.82 0.005 0  0.825 0.005 0  0.83 0.005 0  0.835 0.005 0  0.84 0.005 0  0.845 0.005 0  0.85 0.005 0  0.855 0.005 0  0.86 0.005 0  0.865 0.005 0  0.87 0.005 0  0.875 0.005 0  0.88 0.005 0  0.885 0.005 0  0.89 0.005 0  0.895 0.005 0  0.9 0.005 0  0.905 0.005 0  0.91 0.005 0  0.915 0.005 0  0.92 0.005 0  0.925 0.005 0  0.93 0.005 0  0.9350000000000001 0.005 0  0.9399999999999999 0.005 0  0.945 0.005 0  0.95 0.005 0  0.955 0.005 0  0.96 0.005 0  0.965 0.005 0  0.97 0.005 0  0.975 0.005 0  0.98 0.005 0  0.985 0.005 0  0.99 0.005 0  0.995 0.005 0  1 0.005 0  0 0.01 0  0.005 0.01 0  0.01 0.01 0  0.015 0.01 0  0.02 0.01 0  0.025 0.01 0  0.03 0.01 0  0.035 0.01 0  0.04 0.01 0  0.045 0.01 0  0.05 0.01 0  0.055 0.01 0  0.06 0.01 0  0.065 0.01 0  0.07000000000000001 0.01 0  0.075 0.01 0  0.08 0.01 0  0.08500000000000001 0.01 0  0.09 0.01 0  0.095 0.01 0  0.1 0.01 0  0.105 0.01 0  0.11 0.01 0  0.115 0.01 0  0.12 0.01 0  0.125 0.01 0  0.13 0.01 0  0.135 0.01 0  0.14 0.01 0  0.145 0.01 0  0.15 0.01 0  0.155 0.01 0  0.16 0.01 0  0.165 0.01 0  0.17 0.01 0  0.175 0.01 0  0.18 0.01 0  0.185 0.01 0  0.19 0.01 0  0.195 0.01 0  0.2 0.01 0  0.205 0.01 0  0.21 0.01 0  0.215 0.01 0  0.22 0.01 0  0.225 0.01 0  0.23 0.01 0  0.235 0.01 0  0.24 0.01 0  0.245 0.01 0  0.25 0.01 0  0.255 0.01 0  0.26 0.01 0  0.265 0.01 0  0.27 0.01 0  0.275 0.01 0  0.28 0.01 0  0.285 0.01 0  0.29 0.01 0  0.295 0.01 0  0.3 0.01 0  0.305 0.01 0  0.31 0.01 0  0.315 0.01 0  0.32 0.01 0  0.325 0.01 0  0.33 0.01 0  0.335 0.01 0  0.34 0.01 0  0.345 0.01 0  0.35 0.01 0  0.355 0.01 0  0.36 0.01 0  0.365 0.01 0  0.37 0.01 0  0.375 0.01 0  0.38 0.01 0  0.385 0.01 0  0.39 0.01 0  0.395 0.01 0  0.4 0.01 0  0.405 0.01 0  0.41 0.01 0  0.415 0.01 0  0.42 0.01 0  0.425 0.01 0  0.43 0.01 0  0.435 0.01 0  0.44 0.01 0  0.445 0.01 0  0.45 0.01 0  0.455 0.01 0  0.46 0.01 0  0.465 0.01 0  0.47 0.01 0  0.475 0.01 0  0.48 0.01 0  0.485 0.01 0  0.49 0.01 0  0.495 0.01 0  0.5 0.01 0  0.505 0.01 0  0.51 0.01 0  0.515 0.01 0  0.52 0.01 0  0.525 0.01 0  0.53 0.01 0  0.535 0.01 0  0.54 0.01 0  0.545 0.01 0  0.55 0.01 0  0.555 0.01 0  0.5600000000000001 0.01 0  0.5649999999999999 0.01 0  0.57 0.01 0  0.575 0.01 0  0.58 0.01 0  0.585 0.01 0  0.59 0.01 0  0.595 0.01 0  0.6 0.01 0  0.605 0.01 0  0.61 0.01 0  0.615 0.01 0  0.62 0.01 0  0.625 0.01 0  0.63 0.01 0  0.635 0.01 0  0.64 0.01 0  0.645 0.01 0  0.65 0.01 0  0.655 0.01 0  0.66 0.01 0  0.665 0.01 0  0.67 0.01 0  0.675 0.01 0  0.68 0.01 0  0.6850000000000001 0.01 0  0.6899999999999999 0.01 0  0.695 0.01 0  0.7 0.01 0  0.705 0.01 0  0.71 0.01 0  0.715 0.01 0  0.72 0.01 0  0.725 0.01 0  0.73 0.01 0  0.735 0.01 0  0.74 0.01 0  0.745 0.01 0  0.75 0.01 0  0.755 0.01 0  0.76 0.01 0  0.765 0.01 0  0.77 0.01 0  0.775 0.01 0  0.78 0.01 0  0.785 0.01 0  0.79 0.01 0  0.795 0.01 0  0.8 0.01 0  0.805 0.01 0  0.8100000000000001 0.01 0  0.8149999999999999 0.01 0  0.82 0.01 0  0.825 0.01 0  0.83 0.01 0  0.835 0.01 0  0.84 0.01 0  0.845 0.01 0  0.85 0.01 0  0.855 0.01 0  0.86 0.01 0  0.865 0.01 0  0.87 0.01 0  0.875 0.01 0  0.88 0.01 0  0.885 0.01 0  0.89 0.01 0  0.895 0.01 0  0.9 0.01 0  0.905 0.01 0  0.91 0.01 0  0.915 0.01 0  0.92 0.01 0  0.925 0.01 0  0.93 0.01 0  0.9350000000000001 0.01 0  0.9399999999999999 0.01 0  0.945 0.01 0  0.95 0.01 0  0.955 0.01 0  0.96 0.01 0  0.965 0.01 0  0.97 0.01 0  0.975 0.01 0  0.98 0.01 0  0.985 0.01 0  0.99 0.01 0  0.995 0.01 0  1 0.01 0  0 0.015 0  0.005 0.015 0  0.01 0.015 0  0.015 0.015 0  0.02 0.015 0  0.025 0.015 0  0.03 0.015 0  0.035 0.015 0  0.04 0.015 0  0.045 0.015 0  0.05 0.015 0  0.055 0.015 0  0.06 0.015 0  0.065 0.015 0  0.07000000000000001 0.015 0  0.075 0.015 0  0.08 0.015 0  0.08500000000000001 0.015 0  0.09 0.015 0  0.095 0.015 0  0.1 0.015 0  0.105 0.015 0  0.11 0.015 0  0.115 0.015 0  0.12 0.015 0  0.125 0.015 0  0.13 0.015 0  0.135 0.015 0  0.14 0.015 0  0.145 0.015 0  0.15 0.015 0  0.155 0.015 0  0.16 0.015 0  0.165 0.015 0  0.17 0.015 0  0.175 0.015 0  0.18 0.015 0  0.185 0.015 0  0.19 0.015 0  0.195 0.015 0  0.2 0.015 0  0.205 0.015 0  0.21 0.015 0  0.215 0.015 0  0.22 0.015 0  0.225 0.015 0  0.23 0.015 0  0.235 0.015 0  0.24 0.015 0  0.245 0.015 0  0.25 0.015 0  0.255 0.015 0  0.26 0.015 0  0.265 0.015 0  0.27 0.015 0  0.275 0.015 0  0.28 0.015 0  0.285 0.015 0  0.29 0.015 0  0.295 0.015 0  0.3 0.015 0  0.305 0.015 0  0.31 0.015 0  0.315 0.015 0  0.32 0.015 0  0.325 0.015 0  0.33 0.015 0  0.335 0.015 0  0.34 0.015 0  0.345 0.015 0  0.35 0.015 0  0.355 0.015 0  0.36 0.015 0  0.365 0.015 0  0.37 0.015 0  0.375 0.015 0  0.38 0.015 0  0.385 0.015 0  0.39 0.015 0  0.395 0.015 0  0.4 0.015 0  0.405 0.015 0  0.41 0.015 0  0.415 0.015 0  0.42 0.015 0  0.425 0.015 0  0.43 0.015 0  0.435 0.015 0  0.44 0.015 0  0.445 0.015 0  0.45 0.015 0  0.455 0.015 0  0.46 0.015 0  0.465 0.015 0  0.47 0.015 0  0.475 0.015 0  0.48 0.015 0  0.485 0.015 0  0.49 0.015 0  0.495 0.015 0  0.5 0.015 0  0.505 0.015 0  0.51 0.015 0  0.515 0.015 0  0.52 0.015 0  0.525 0.015 0  0.53 0.015 0  0.535 0.015 0  0.54 0.015 0  0.545 0.015 0  0.55 0.015 0  0.555 0.015 0  0.5600000000000001 0.015 0  0.
[...]
<PointData  Scalars="f_1084"> 
<DataArray  type="Float64"  Name="f_1084"  format="ascii">3.7781701479863365e-02  3.8818342756228093e-02  3.9711361678517194e-02  4.0526523480903812e-02  4.0932785495996347e-02  4.1586456858890036e-02  4.2251413732582184e-02  4.2547477050593072e-02  4.3114326483592195e-02  4.3708022128263996e-02  4.3943961643849762e-02  4.4458987417553109e-02  4.5007281336063736e-02  4.5202955118754801e-02  4.5681894485091482e-02  4.6197571248566098e-02  4.6363565291911719e-02  4.6815332800452698e-02  4.7306005590605285e-02  4.7448895343835285e-02  4.7879230003364762e-02  4.8349953106734733e-02  4.8474222718917936e-02  4.8887131135701867e-02  4.9341506702438483e-02  4.9450411232824135e-02  4.9848849630076658e-02  5.0289574394330717e-02  5.0385582821181607e-02  5.0771819935246904e-02  5.1200985375578004e-02  5.1286030832042556e-02  5.1661858245018323e-02  5.2081128687210244e-02  5.2156760187247346e-02  5.2523622417205623e-02  5.2934347228542733e-02  5.3001826892392197e-02  5.3360906087755150e-02  5.3764193808491297e-02  5.3824562003239769e-02  5.4176835431514983e-02  5.4573604713462398e-02  5.4627725335787122e-02  5.4974005786761267e-02  5.5365021565570445e-02  5.5413614516642916e-02  5.5754579550538169e-02  5.6140479465464611e-02  5.6184144573586309e-02  5.6520358242848373e-02  5.6901672411237898e-02  5.6940907471789266e-02  5.7272836819125740e-02  5.7650002958936693e-02  5.7685217622085581e-02  5.8013245462123393e-02  5.8386620679670591e-02  5.8418147339638765e-02  5.8742582337905871e-02  5.9112452473904772e-02  5.9140554948277260e-02  5.9461639695488032e-02  5.9828226848792770e-02  5.9853107398549939e-02  6.0171024970966651e-02  6.0534493638347564e-02  6.0556298720826393e-02  6.0871178078384207e-02  6.1231640226363147e-02  6.1250465265564116e-02  6.1562385744276478e-02  6.1919905044835542e-02  6.1935798428903094e-02  6.2244793517870371e-02  6.2599388921007096e-02  6.2612355384351559e-02  6.2918415931029037e-02  6.3270064705495926e-02  6.3280068215853386e-02  6.3583145170016495e-02  6.3931785513870090e-02  6.3938751758010115e-02  6.4238758541060828e-02  6.4584291842341046e-02  6.4588110385075226e-02  6.4884924954277876e-02  6.5227217766895385e-02  6.5227743944425168e-02  6.5521210609532449e-02  6.5860096398647525e-02  6.5857152997721782e-02  6.6147084038986712e-02  6.6482364742724162e-02  6.6475743510573032e-02  6.6761920641512651e-02  6.7093368091014099e-02  6.7082831116931432e-02  6.7365006831795679e-02  6.7692364068863309e-02  6.7677645076170814e-02  6.7955543920525691e-02  6.8278526451109073e-02  6.8259332037773443e-02  6.8532651840651868e-02  6.8850948862986094e-02  6.8826959730201059e-02  6.9095372837801622e-02  6.9408648485999661e-02  6.9379520696524755e-02  6.9642675250394123e-02  6.9950569897739887e-02  6.9915936209706570e-02  7.0173457516762780e-02  7.0475589187877094e-02  7.0435060515235709e-02  7.0686552562984881e-02  7.0982518510595963e-02  7.0935685568514539e-02  7.1180732746565556e-02  7.1470111257003366e-02  7.1416546459584257e-02  7.1654715558319440e-02  7.1937068060347095e-02  7.1876327749294769e-02  7.2107170318647093e-02  7.2382043883187544e-02  7.2313670979930800e-02  7.2536726146042729e-02  7.2803656480225326e-02  7.2727183670932463e-02  7.2941981526563560e-02  7.3200496584802821e-02  7.3115450168310087e-02  7.3321515874795726e-02  7.3571140232996546e-02  7.3477044786566137e-02  7.3673903551632128e-02  7.3914163718811862e-02  7.3810547766619397e-02  7.3997730894225081e-02  7.4228161769688467e-02  7.4114564674871555e-02  7.4291616921365183e-02  7.4511769645962692e-02  7.4387749989836216e-02  7.4554238505958326e-02  7.4763690003783120e-02  7.4628835766295198e-02  7.4784360957763835e-02  7.4982725520616508e-02  7.4836666434934487e-02  7.4980875135997299e-02  7.5167818467441513e-02  7.5010240988822613e-02  7.5142842413121566e-02  7.5318098621449142e-02  7.5148764025368950e-02  7.5269549035299060e-02  7.5432941143159737e-02  7.5251707347186655e-02  7.5360571662831957e-02  7.5512036280731790e-02  7.5318884062540489e-02  7.5415856106308590e-02  7.5555472987694244e-02  7.5350537335598655e-02  7.5435811463668234e-02  7.5563838702328051e-02  7.5347446062106263e-02  7.5421421941194250e-02  7.5538337553768958e-02  7.5311049685871462e-02  7.5374378484601726e-02  7.5480928982851581e-02  7.5243593945605189e-02  7.5297231737134124e-02  7.5394487930963178e-02  7.5148298230116206e-02  7.5193566390461195e-02  7.5282985882225248e-02  7.5029542839453442e-02  7.5068193981957701e-02  7.5151688250114188e-02  7.4893069682263794e-02  7.4927355205504462e-02  7.5007356072917419e-02  7.4746180447029326e-02  7.4778910770512907e-02  7.4858424621655054e-02  7.4597896489820764e-02  7.4632474028410903e-02  7.4715097356835902e-02  7.4458998642305582e-02  7.4499375201777907e-02  7.4589204143110044e-02  7.4341734778482119e-02  7.4392150092113682e-02  7.4493360572863807e-02  7.4258455237226503e-02  7.4322303327272660e-02  3.7570303122854337e-02  3.8467989169881360e-02  3.9396276551039187e-02  3.9898421979967708e-02  4.0624001756691314e-02  4.1345392859512380e-02  4.1687509925721865e-02  4.2293064938503197e-02  4.2920011187369760e-02  4.3184991492888403e-02  4.3725737228589731e-02  4.4297067236955028e-02  4.4513557445527277e-02  4.5011456746887474e-02  4.5544517441474273e-02  4.5726536706760863e-02  4.6193151070088125e-02  4.6697638490437315e-02  4.6853428431259114e-02  4.7295850680756833e-02  4.7777934088598116e-02  4.7912907382509765e-02  4.8335925842106761e-02  4.8799871867082116e-02  4.8917852948188942e-02  4.9324915671759867e-02  4.9773848983186306e-02  4.9877681450829284e-02  5.0271387182697524e-02  5.0707691626695410e-02  5.0799568891392068e-02  5.1181942094260330e-02  5.1607491331791620e-02  5.1689151326117760e-02  5.2061807726410669e-02  5.2478106885946035e-02  5.2550953912744412e-02  5.2915205909623821e-02  5.3323483248740720e-02  5.3388668028917140e-02  5.3745594927626816e-02  5.4146863720786670e-02  5.4205338120533395e-02  5.4555834718751070e-02  5.4950936549209198e-02  5.5003492270185347e-02  5.5348303552790079e-02  5.5737939522301903e-02  5.5785236248910561e-02  5.6124982848218249e-02  5.6509736669946603e-02  5.6552323062282708e-02  5.6887520391585372e-02  5.7267875871163262e-02  5.7306205568096798e-02  5.7637278505537612e-02  5.8013633043513819e-02  5.8048077100696982e-02  5.8375371470377128e-02  5.8748046680444123e-02  5.8778903405980187e-02  5.9102695105575233e-02  5.9471945299716375e-02  5.9499448153151717e-02  5.9819950519432383e-02  6.0185969586624755e-02  6.0210293611079331e-02  6.0527663443420643e-02  6.0890590498315585e-02  6.0911857623616360e-02  6.1226200169398531e-02  6.1586124244896782e-02  6.1604407708993975e-02  6.1915780834600025e-02  6.2272744821097903e-02  6.2288072893875696e-02  6.2596490608798155e-02  6.2950494592831266e-02  6.2962853741800939e-02  6.3268289203537248e-02  6.3619293322955517e-02  6.3628630928499588e-02  6.3931019027453587e-02  6.4278945934779036e-02  6.4285172639811580e-02  6.4584412242996936e-02  6.4929149250346305e-02  6.4932141012910810e-02  6.5228096930657037e-02  6.5569497896575873e-02  6.5569097802301274e-02  6.5861602531847890e-02  6.6199489541277745e-02  6.6195509424560178e-02  6.6484364717368336e-02  6.6818529599810550e-02  6.6810751517281539e-02  6.7095729812358215e-02  6.7425935539500367e-02  6.7414113136218590e-02  6.7694958899273974e-02  6.8020940901468596e-02  6.8004800708979254e-02  6.8281231716489227e-02  6.8602699157262484e-02  6.8581941862969176e-02  6.8853650471022931e-02  6.9170287520090037e-02  6.9144589249169164e-02  6.9411243689247476e-02  6.9722710837256965e-02  6.9691724491579427e-02  6.9952970239138240e-02  7.0258905701599025e-02  7.0222262404860028e-02  7.0477723671848333e-02  7.0777744935484180e-02  7.0735055640093664e-02  7.0984337049466911e-02  7.1278042621774701e-02  7.1228899941221724e-02  7.1471588450323378e-02  7.1758559882613079e-02  7.1702540223230041e-02  7.1938207373893406e-02  7.2218011639860066e-02  7.2154677718538507e-02  7.2382882305262519e-02  7.2655074631581801e-02  7.2583978481409850e-02  7.2804269745432609e-02  7.3068397008438479e-02  7.2989083592967338e-02  7.3201005070018893e-02  7.3456609893781361e-02  7.3368621473248741e-02  7.3571715646831043e-02  7.3818341363529882e-02  7.3721222783546522e-02  7.3915036724442301e-02  7.4152233388550398e-02  7.4045538494211874e-02  7.4229630701309557e-02  7.4456962385487602e-02  7.4340261802363486e-02  7.4514210500527076e-02  7.4731264144019996e-02  7.4604154712634138e-02  7.4767567910880753e-02  7.4973964041103666e-02  7.4836080243845415e-02  7.4988607911784785e-02  7.5184013616863082e-02  7.5035041395612498e-02  7.5176390177647726e-02  7.5360534771203483e-02  7.5200228199268665e-02  7.5330179152801061e-02  7.5502873040074733e-02  7.5331074380317872e-02  7.5449504292327177e-02  7.5610661613820587e-02  7.5427325359910424e-02  7.5534232257974759e-02  7.5683897943590234e-02  7.5489119491244150e-02  7.5584653005825592e-02  7.5723034901209837e-02  7.5517084509596502e-02  7.5601581738150278e-02  7.5729088434140085e-02  7.5512451076237594e-02  7.5586478500528784e-02  7.5703763350889033e-02  7.5477184848826484e-02  7.5541586584248796e-02  7.5649598039033802e-02  7.5414137418489083e-02  7.5470089485201106e-02  7.5570127122887132e-02  7.5327214186540523e-02  7.5376283325143678e-02  7.5470057512705122e-02  7.5221552823894852e-02  7.5265756128147843e-02  7.5355446435336426e-02  7.5103697402638489e-02  7.5145554652977536e-02  7.5233856615406422e-02  7.4981736349822664e-02  7.5024297952584168e-02  7.5114436182714517e-02  7.4865336662118226e-02  7.4912150104953196e-02  7.5007809014873292e-02  7.4765523926740060e-02  7.4820452329285539e-02  7.4925508462538579e-02  7.4693851547449799e-02  7.4760547345932557e-02  7.4878359965514091e-02  3.7652882623266201e-02  3.8424374265936090e-02  3.8909464565969339e-02  3.9667674602560800e-02  4.0431209861035509e-02  4.0813849340417784e-02  4.1456006511678391e-02  4.2115575113840120e-02  4.2409643452301936e-02  4.2976472473195623e-02  4.3571342576877947e-02  4.3809206889635570e-02  4.4326634963071307e-02  4.4877637426178195e-02  4.5076217632378977e-02  4.5558188256142676e-02  4.6076971970658083e-02  4.6246116054872430e-02  4.6701053537141254e-02  4.7194900179406626e-02  4.7340956949351483e-02  4.7774443979105567e-02  4.8248299416965269e-02  4.8375677901000745e-02  4.8791669226630564e-02  4.9249100125004837e-02  4.9361031575020531e-02  4.9762467909047411e-02  5.0206161382438420e-02  5.0305109367411283e-02  5.0694256997632532e-02  5.1126304130231393e-02  5.1214202805581727e-02  5.1592855269697938e-02  5.2014922924722366e-02  5.2093324180901707e-02  5.2462929027606554e-02  5.2876369625910344e-02  5.2946538575213621e-02  5.3308280820732253e-02  5.3714205606018972e-02  5.3777185135423414e-02  5.4132044371932787e-02  5.4531374123327425e-02  5.4588030066846566e-02  5.4936820840744825e-02  5.5330322082828232e-02  5.5381375780210025e-02  5.5724776956920123e-02  5.6113088518986505e-02  5.6159140893433622e-02  5.6497717544053652e-02  5.6881370504847192e-02  5.6922920275503559e-02  5.7257140347167411e-02  5.7636573327662519e-02  5.7674031064292294e-02  5.8004278324526426e-02  5.8379849433423739e-02  5.8413548598113173e-02  5.8740132860656463e-02  5.9112129181527980e-02  5.9142334943374286e-02  5.9465500272158356e-02  5.9834145511299418e-02  5.9861061885156608e-02  6.0180993268156971e-02  6.0546454002829979e-02  6.0570229705955748e-02  6.0887058552448560e-02  6.1249449397534531e-02  6.1270182710652155e-02  6.1583991430553681e-02  6.1943379357612759e-02  6.1961122202410533e-02  6.2271948060203842e-02  6.2628356044079958e-02  6.2643117436746359e-02  6.2950955825747792e-02  6.3304365952104633e-02  6.3316114955201938e-02  6.3620922204560254e-02  6.3971278341888482e-02  6.3979946610140309e-02  6.4281642413037521e-02  6.4628852531229061e-02  6.4634336527612413e-02  6.4932806061950232e-02  6.5276744264179620e-02  6.5278907208983925e-02  6.5574003009608944e-02  6.5914511333366219e-02  6.5913184939228681e-02  6.6204728572206356e-02  6.6541618607821554e-02  6.6536604647177533e-02  6.6824388230941292e-02  6.7157442601047918e-02  6.7148514348311900e-02  6.7432301963074356e-02  6.7761275703700025e-02  6.7748179292340532e-02  6.8027708317613997e-02  6.8352330200592157e-02  6.8334785934827613e-02  6.8609768354972664e-02  6.8929742191969123e-02  6.8907445853900726e-02  6.9177569573215691e-02  6.9492575543728508e-02  6.9465199739288469e-02  6.9730129951190128e-02  7.0039826000425104e-02  7.0007021591546439e-02  7.0266402250942411e-02  7.0570425608520448e-02  7.0531823284536249e-02  7.0785278738623461e-02  7.1083247615793668e-02  7.1038459664368933e-02  7.1285596505017840e-02  7.1577112036601553e-02  7.1525734383738437e-02  7.1766143594547749e-02  7.2050792102519121e-02  7.1992406702608910e-02  7.2225666185982154e-02  7.2503021854689348e-02  7.2437199525612020e-02  7.2662877110160798e-02  7.2932505179172782e-02  7.2858808994452171e-02  7.3076466041168187e-02  7.3337926641016030e-02  7.3255916011574759e-02  7.3465111759028034e-02  7.3717964538296030e-02  7.3627200140951893e-02  7.3827496955873387e-02  7.4071306675755191e-02  7.3971356414900977e-02  7.4162326145505497e-02  7.4396669450708053e-02  7.4287115674212173e-02  7.4468347340107419e-02  7.4692820953418157e-02  7.4573269184218041e-02  7.4744378279198262e-02  7.4958608911533955e-02  7.4828698402922833e-02  7.4989338135511480e-02  7.5192994453797346e-02  7.5052410928844668e-02  7.5202285779635364e-02  7.5395092830643495e-02  7.5243583823301347e-02  7.5382465856304523e-02  7.5564222403358847e-02  7.5401615677707631e-02  7.5529364101275615e-02  7.5699963387774974e-02  7.5526188966596075e-02  7.5642773490740667e-02  7.5802227990729082e-02  7.5617344364146175e-02  7.5722872931724527e-02  7.5871343666951377e-02  7.5675568756523856e-02  7.5770320212143333e-02  7.5908151178650768e-02  7.5701898567771542e-02  7.5786360729151597e-02  7.5914118835054376e-02  7.5698039583617746e-02  7.5772952924655149e-02  7.5891473509335089e-02  7.5666503447186118e-02  7.5732910067124529e-02  7.5843347402374348e-02  7.5610758963043173e-02  7.5670055485133586e-02  7.5773936387289381e-02  7.5535392479384997e-02  7.5589383601193008e-02  7.5688659925024521e-02  7.5446264443558828e-02  7.5497210304235035e-02  7.5594301713752060e-02  7.5350635901811305e-02  7.5401279775655902e-02  7.5499089958628376e-02  7.5257213653412661e-02  7.5310763916599188e-02  7.5412637997906054e-02  7.5176016162438949e-02  7.5236034644386302e-02  7.5345601615811858e-02  7.5117894113832337e-02  7.5188030105990303e-02  7.5308881740559774e-02  7.5093550862281505e-02  3.7781881061699163e-02  3.8130588118064600e-02  3.8823685564842933e-02  3.9573087561337178e-02  3.9966565073924001e-02  4.0629435459783161e-02  4.1312793516255865e-02  4.1630886956618367e-02  4.2220826036783357e-02  4.2837468454644284e-02  4.3095665936507870e-02  4.3632032768718167e-02  4.4200672223681618e-02  4.4415693015771918e-02  4.4913020511922828e-02  4.5446180616801675e-02  4.5628811183528017e-02  4.6096430467539098e-02  4.6602228717051199e-02  4.6759570567172178e-02  4.7203735250391003e-02  4.7687712575858111e-02  4.7824701424366421e-02  4.8249832907295419e-02  4.8715970191272676e-02  4.8836205697410304e-02  4.9245573425888430e-02  4.9696852063703639e-02  4.9803061987004703e-02  5.0199170272413204e-02  5.0637896518978549e-02  5.0732210089706263e-02  5.1117029924655499e-02  5.1545032581093143e-02  5.1629149868559092e-02  5.2004264810423070e-02  5.2423021497250200e-02  5.2498323150496837e-02  5.2865025134239109e-02  5.3275746299181068e-02  5.3343367460765130e-02  5.3702722090732631e-02  5.4106408896431042e-02  5.4167290680427534e-02  5.4520183167173400e-02  5.4917668614967469e-02  5.4972595018941868e-02  5.5319763411707135e-02  5.5711742346081262e-02  5.5761367403919425e-02  5.6103427229199490e-02  5.6490478751102420e-02  5.6535346964074612e-02  5.6872809894618633e-02  5.7255414458704086e-02  5.7295976482114513e-02  5.7629264760478166e-02  5.8007817464039463e-02  5.8044442371028349e-02  5.8373900149356395e-02  5.8748721236774604e-02  5.8781706263421600e-02  5.9107608659973207e-02  5.9478951953121820e-02  5.9508530356503796e-02  5.9831090791832887e-02  6.0199150549180062e-02  6.0225498028135725e-02  6.0544874244149366e-02  6.0909790810795665e-02  6.0933030815330649e-02  6.1249329871090406e-02  6.1611194385217165e-02  6.1631402554744627e-02  6.1944685016778113e-02  6.2303543370319583e-02  6.2320751280712301e-02  6.2631034771919739e-02  6.2986890975356188e-02  6.3001089331989418e-02  6.3308351564957441e-02  6.3661170631879677e-02  6.3672312015173552e-02  6.3976493408234913e-02  6.4326203850693972e-02  6.4334205098594902e-02  6.4635211053187050e-02  6.4981707061122690e-02  6.4986451357095382e-02  6.5284154260787847e-02  6.5627297626161069e-02  6.5628636349979605e-02  6.5922877359503904e-02  6.6262499196872077e-02  6.6260253587662257e-02  6.6550844239418275e-02  6.6886746548714515e-02  6.6880709224552692e-02  6.7167432915675090e-02  6.7499390029288647e-02  6.7489326404666039e-02  6.7771939785379792e-02  6.8099699739872607e-02  6.8085349381149601e-02  6.8363583698506661e-02  6.8686869571198905e-02  6.8667947530585915e-02  6.8941509964586770e-02  6.9260021216649495e-02  6.9236219387146206e-02  6.9504794422636906e-02  6.9818208293198902e-02  6.9789196830279884e-02  7.0052447711861532e-02  7.0360420711993096e-02  7.0325849572695401e-02  7.0583419895278693e-02  7.0885589456643389e-02  7.0845090113204140e-02  7.1096605607911326e-02  7.1392591948551007e-02  7.1345779342039020e-02  7.1590849926101513e-02  7.1880258205451825e-02  7.1826733015181998e-02  7.2064955185582300e-02  7.2347378032693491e-02  7.2286729349919282e-02  7.2517689014089767e-02  7.2792709527507882e-02  7.2724518037318650e-02  7.2947793890654214e-02  7.3214989225911437e-02  7.3138831019866693e-02  7.3353998599565831e-02  7.3612944281210652e-02  7.3528395445496705e-02  7.3735032013838547e-02  7.3985307133913464e-02  7.3891949284235883e-02  7.4089639722331735e-02  7.4330833216702613e-02  7.4228260182230929e-02  7.4416604108053924e-02  7.4648322336451328e-02  7.4536148231329730e-02  7.4714768593761777e-02  7.4936644489100507e-02  7.4814513451478881e-02  7.4983066895291592e-02  7.5194770992655507e-02  7.5062368917599515e-02  7.5220558262112464e-02  7.5421811966904923e-02  7.5278880609677329e-02  7.5426469834723731e-02  7.5617061340702799e-02  7.5463415218024535e-02  7.5600247401235693e-02  7.5780050718113556e-02  7.5615597281608493e-02  7.5741615974224283e-02  7.5910613562943832e-02  7.5735377151111644e-02  7.5850651703413680e-02  7.6008961230619149e-02  7.5823111305822366e-02  7.5927866636943481e-02  7.6075772323408425e-02  7.5879656438591861e-02  7.5974307653146694e-02  7.6112296561531206e-02  7.5906478327113489e-02  7.5991670352662022e-02  7.6120473666375171e-02  7.5905775615898397e-02  7.5982427569561431e-02  7.6103066336415240e-02  7.5880616876949900e-02  7.5949969996083597e-02  7.6063803744803510e-02  7.5835086082878339e-02  7.5898752485336771e-02  7.6007527226555113e-02  7.5774425874308327e-02  7.5834432664691295e-02  7.5940321490880494e-02  7.5705158015807808e-02  7.5763976564435842e-02  7.5869600521171129e-02  7.5635143722711726e-02  7.5695686495999642e-02  7.5804095079706660e-02  7.5573521953411438e-02  7.5639080821306492e-02  7.5753665174544363e-02  7.5530448234442035e-02  7.5604558267894778e-02  7.5728897754320484e-02  7.5516641637061288e-02  7.5602903791402484e-02  3.7570327833492727e-02  3.8163160501454442e-02  3.8842986893830166e-02  3.9201232611697480e-02  3.9853273392850781e-02  4.0540142070867771e-02  4.0869352089882217e-02  4.1474061850968247e-02  4.2106991869936376e-02  4.2381862323595074e-02  4.2934688003135463e-02  4.3519264798095134e-02  4.3749557017781854e-02  4.4261438513158377e-02  4.4808428799584223e-02  4.5004182971358830e-02  4.5484253606797954e-02  4.6001869445755746e-02  4.6170433369362315e-02  4.6625265343667899e-02  4.7119393281145207e-02  4.7266050328401803e-02  4.7700401515713808e-02  4.8175340809131051e-02  4.8303987791107214e-02  4.8721402914239