<?xml version="1.0"?>
<VTKFile type="UnstructuredGrid"  version="0.1"  >
<UnstructuredGrid>
<Piece  NumberOfPoints="10201" NumberOfCells="20000">
<Points>
<DataArray  type="Float64"  NumberOfComponents="3"  format="ascii">0 0 0  0.01 0 0  0.02 0 0  0.03 0 0  0.04 0 0  0.05 0 0  0.06 0 0  0.07000000000000001 0 0  0.08 0 0  0.09 0 0  0.1 0 0  0.11 0 0  0.12 0 0  0.13 0 0  0.14 0 0  0.15 0 0  0.16 0 0  0.17 0 0  0.18 0 0  0.19 0 0  0.2 0 0  0.21 0 0  0.22 0 0  0.23 0 0  0.24 0 0  0.25 0 0  0.26 0 0  0.27 0 0  0.28 0 0  0.29 0 0  0.3 0 0  0.31 0 0  0.32 0 0  0.33 0 0  0.34 0 0  0.35 0 0  0.36 0 0  0.37 0 0  0.38 0 0  0.39 0 0  0.4 0 0  0.41 0 0  0.42 0 0  0.43 0 0  0.44 0 0  0.45 0 0  0.46 0 0  0.47 0 0  0.48 0 0  0.49 0 0  0.5 0 0  0.51 0 0  0.52 0 0  0.53 0 0  0.54 0 0  0.55 0 0  0.5600000000000001 0 0  0.57 0 0  0.58 0 0  0.59 0 0  0.6 0 0  0.61 0 0  0.62 0 0  0.63 0 0  0.64 0 0  0.65 0 0  0.66 0 0  0.67 0 0  0.68 0 0  0.6899999999999999 0 0  0.7 0 0  0.71 0 0  0.72 0 0  0.73 0 0  0.74 0 0  0.75 0 0  0.76 0 0  0.77 0 0  0.78 0 0  0.79 0 0  0.8 0 0  0.8100000000000001 0 0  0.82 0 0  0.83 0 0  0.84 0 0  0.85 0 0  0.86 0 0  0.87 0 0  0.88 0 0  0.89 0 0  0.9 0 0  0.91 0 0  0.92 0 0  0.93 0 0  0.9399999999999999 0 0  0.95 0 0  0.96 0 0  0.97 0 0  0.98 0 0  0.99 0 0  1 0 0  0 0.01 0  0.01 0.01 0  0.02 0.01 0  0.03 0.01 0  0.04 0.01 0  0.05 0.01 0  0.06 0.01 0  0.07000000000000001 0.01 0  0.08 0.01 0  0.09 0.01 0  0.1 0.01 0  0.11 0.01 0  0.12 0.01 0  0.13 0.01 0  0.14 0.01 0  0.15 0.01 0  0.16 0.01 0  0.17 0.01 0  0.18 0.01 0  0.19 0.01 0  0.2 0.01 0  0.21 0.01 0  0.22 0.01 0  0.23 0.01 0  0.24 0.01 0  0.25 0.01 0  0.26 0.01 0  0.27 0.01 0  0.28 0.01 0  0.29 0.01 0  0.3 0.01 0  0.31 0.01 0  0.32 0.01 0  0.33 0.01 0  0.34 0.01 0  0.35 0.01 0  0.36 0.01 0  0.37 0.01 0  0.38 0.01 0  0.39 0.01 0  0.4 0.01 0  0.41 0.01 0  0.42 0.01 0  0.43 0.01 0  0.44 0.01 0  0.45 0.01 0  0.46 0.01 0  0.47 0.01 0  0.48 0.01 0  0.49 0.01 0  0.5 0.01 0  0.51 0.01 0  0.52 0.01 0  0.53 0.01 0  0.54 0.01 0  0.55 0.01 0  0.5600000000000001 0.01 0  0.57 0.01 0  0.58 0.01 0  0.59 0.01 0  0.6 0.01 0  0.61 0.01 0  0.62 0.01 0  0.63 0.01 0  0.64 0.01 0  0.65 0.01 0  0.66 0.01 0  0.67 0.01 0  0.68 0.01 0  0.6899999999999999 0.01 0  0.7 0.01 0  0.71 0.01 0  0.72 0.01 0  0.73 0.01 0  0.74 0.01 0  0.75 0.01 0  0.76 0.01 0  0.77 0.01 0  0.78 0.01 0  0.79 0.01 0  0.8 0.01 0  0.8100000000000001 0.01 0  0.82 0.01 0  0.83 0.01 0  0.84 0.01 0  0.85 0.01 0  0.86 0.01 0  0.87 0.01 0  0.88 0.01 0  0.89 0.01 0  0.9 0.01 0  0.91 0.01 0  0.92 0.01 0  0.93 0.01 0  0.9399999999999999 0.01 0  0.95 0.01 0  0.96 0.01 0  0.97 0.01 0  0.98 0.01 0  0.99 0.01 0  1 0.01 0  0 0.02 0  0.01 0.02 0  0.02 0.02 0  0.03 0.02 0  0.04 0.02 0  0.05 0.02 0  0.06 0.02 0  0.07000000000000001 0.02 0  0.08 0.02 0  0.09 0.02 0  0.1 0.02 0  0.11 0.02 0  0.12 0.02 0  0.13 0.02 0  0.14 0.02 0  0.15 0.02 0  0.16 0.02 0  0.17 0.02 0  0.18 0.02 0  0.19 0.02 0  0.2 0.02 0  0.21 0.02 0  0.22 0.02 0  0.23 0.02 0  0.24 0.02 0  0.25 0.02 0  0.26 0.02 0  0.27 0.02 0  0.28 0.02 0  0.29 0.02 0  0.3 0.02 0  0.31 0.02 0  0.32 0.02 0  0.33 0.02 0  0.34 0.02 0  0.35 0.02 0  0.36 0.02 0  0.37 0.02 0  0.38 0.02 0  0.39 0.02 0  0.4 0.02 0  0.41 0.02 0  0.42 0.02 0  0.43 0.02 0  0.44 0.02 0  0.45 0.02 0  0.46 0.02 0  0.47 0.02 0  0.48 0.02 0  0.49 0.02 0  0.5 0.02 0  0.51 0.02 0  0.52 0.02 0  0.53 0.02 0  0.54 0.02 0  0.55 0.02 0  0.5600000000000001 0.02 0  0.57 0.02 0  0.58 0.02 0  0.59 0.02 0  0.6 0.02 0  0.61 0.02 0  0.62 0.02 0  0.63 0.02 0  0.64 0.02 0  0.65 0.02 0  0.66 0.02 0  0.67 0.02 0  0.68 0.02 0  0.6899999999999999 0.02 0  0.7 0.02 0  0.71 0.02 0  0.72 0.02 0  0.73 0.02 0  0.74 0.02 0  0.75 0.02 0  0.76 0.02 0  0.77 0.02 0  0.78 0.02 0  0.79 0.02 0  0.8 0.02 0  0.8100000000000001 0.02 0  0.82 0.02 0  0.83 0.02 0  0.84 0.02 0  0.85 0.02 0  0.86 0.02 0  0.87 0.02 0  0.88 0.02 0  0.89 0.02 0  0.9 0.02 0  0.91 0.02 0  0.92 0.02 0  0.93 0.02 0  0.9399999999999999 0.02 0  0.95 0.02 0  0.96 0.02 0  0.97 0.02 0  0.98 0.02 0  0.99 0.02 0  1 0.02 0  0 0.03 0  0.01 0.03 0  0.02 0.03 0  0.03 0.03 0  0.04 0.03 0  0.05 0.03 0  0.06 0.03 0  0.07000000000000001 0.03 0  0.08 0.03 0  0.09 0.03 0  0.1 0.03 0  0.11 0.03 0  0.12 0.03 0  0.13 0.03 0  0.14 0.03 0  0.15 0.03 0  0.16 0.03 0  0.17 0.03 0  0.18 0.03 0  0.19 0.03 0  0.2 0.03 0  0.21 0.03 0  0.22 0.03 0  0.23 0.03 0  0.24 0.03 0  0.25 0.03 0  0.26 0.03 0  0.27 0.03 0  0.28 0.03 0  0.29 0.03 0  0.3 0.03 0  0.31 0.03 0  0.32 0.03 0  0.33 0.03 0  0.34 0.03 0  0.35 0.03 0  0.36 0.03 0  0.37 0.03 0  0.38 0.03 0  0.39 0.03 0  0.4 0.03 0  0.41 0.03 0  0.42 0.03 0  0.43 0.03 0  0.44 0.03 0  0.45 0.03 0  0.46 0.03 0  0.47 0.03 0  0.48 0.03 0  0.49 0.03 0  0.5 0.03 0  0.51 0.03 0  0.52 0.03 0  0.53 0.03 0  0.54 0.03 0  0.55 0.03 0  0.5600000000000001 0.03 0  0.57 0.03 0  0.58 0.03 0  0.59 0.03 0  0.6 0.03 0  0.61 0.03 0  0.62 0.03 0  0.63 0.03 0  0.64 0.03 0  0.65 0.03 0  0.66 0.03 0  0.67 0.03 0  0.68 0.03 0  0.6899999999999999 0.03 0  0.7 0.03 0  0.71 0.03 0  0.72 0.03 0  0.73 0.03 0  0.74 0.03 0  0.75 0.03 0  0.76 0.03 0  0.77 0.03 0  0.78 0.03 0  0.79 0.03 0  0.8 0.03 0  0.8100000000000001 0.03 0  0.82 0.03 0  0.83 0.03 0  0.84 0.03 0  0.85 0.03 0  0.86 0.03 0  0.87 0.03 0  0.88 0.03 0  0.89 0.03 0  0.9 0.03 0  0.91 0.03 0  0.92 0.03 0  0.93 0.03 0  0.9399999999999999 0.03 0  0.95 0.03 0  0.96 0.03 0  0.97 0.03 0  0.98 0.03 0  0.99 0.03 0  1 0.03 0  0 0.04 0  0.01 0.04 0  0.02 0.04 0  0.03 0.04 0  0.04 0.04 0  0.05 0.04 0  0.06 0.04 0  0.07000000000000001 0.04 0  0.08 0.04 0  0.09 0.04 0  0.1 0.04 0  0.11 0.04 0  0.12 0.04 0  0.13 0.04 0  0.14 0.04 0  0.15 0.04 0  0.16 0.04 0  0.17 0.04 0  0.18 0.04 0  0.19 0.04 0  0.2 0.04 0  0.21 0.04 0  0.22 0.04 0  0.23 0.04 0  0.24 0.04 0  0.25 0.04 0  0.26 0.04 0  0.27 0.04 0  0.28 0.04 0  0.29 0.04 0  0.3 0.04 0  0.31 0.04 0  0.32 0.04 0  0.33 0.04 0  0.34 0.04 0  0.35 0.04 0  0.36 0.04 0  0.37 0.04 0  0.38 0.04 0  0.39 0.04 0  0.4 0.04 0  0.41 0.04 0  0.42 0.04 0  0.43 0.04 0  0.44 0.04 0  0.45 0.04 0  0.46 0.04 0  0.47 0.04 0  0.48 0.04 0  0.49 0.04 0  0.5 0.04 0  0.51 0.04 0  0.52 0.04 0  0.53 0.04 0  0.54 0.04 0  0.55 0.04 0  0.5600000000000001 0.04 0  0.57 0.04 0  0.58 0.04 0  0.59 0.04 0  0.6 0.04 0  0.61 0.04 0  0.62 0.04 0  0.63 0.04 0  0.64 0.04 0  0.65 0.04 0  0.66 0.04 0  0.67 0.04 0  0.68 0.04 0  0.6899999999999999 0.04 0  0.7 0.04 0  0.71 0.04 0  0.72 0.04 0  0.73 0.04 0  0.74 0.04 0  0.75 0.04 0  0.76 0.04 0  0.77 0.04 0  0.78 0.04 0  0.79 0.04 0  0.8 0.04 0  0.8100000000000001 0.04 0  0.82 0.04 0  0.83 0.04 0  0.84 0.04 0  0.85 0.04 0  0.86 0.04 0  0.87 0.04 0  0.88 0.04 0  0.89 0.04 0  0.9 0.04 0  0.91 0.04 0  0.92 0.04 0  0.93 0.04 0  0.9399999999999999 0.04 0  0.95 0.04 0  0.96 0.04 0  0.97 0.04 0  0.98 0.04 0  0.99 0.04 0  1 0.04 0  0 0.05 0  0.01 0.05 0  0.02 0.05 0  0.03 0.05 0  0.04 0.05 0  0.05 0.05 0  0.06 0.05 0  0.07000000000000001 0.05 0  0.08 0.05 0  0.09 0.05 0  0.1 0.05 0  0.11 0.05 0  0.12 0.05 0  0.13 0.05 0  0.14 0.05 0  0.15 0.05 0  0.16 0.05 0  0.17 0.05 0  0.18 0.05 0  0.19 0.05 0  0.2 0.05 0  0.21 0.05 0  0.22 0.05 0  0.23 0.05 0  0.24 0.05 0  0.25 0.05 0  0.26 0.05 0  0.27 0.05 0  0.28 0.05 0  0.29 0.05 0  0.3 0.05 0  0.31 0.05 0  0.32 0.05 0  0.33 0.05 0  0.34 0.05 0  0.35 0.05 0  0.36 0.05 0  0.37 0.05 0  0.38 0.05 0  0.39 0.05 0  0.4 0.05 0  0.41 0.05 0  0.42 0.05 0  0.43 0.05 0  0.44 0.05 0  0.45 0.05 0  0.46 0.05 0  0.47 0.05 0  0.48 0.05 0  0.49 0.05 0  0.5 0.05 0  0.51 0.05 0  0.52 0.05 0  0.53 0.05 0  0.54 0.05 0  0.55 0.05 0  0.5600000000000001 0.05 0  0.57 0.05 0  0.58 0.05 0  0.59 0.05 0  0.6 0.05 0  0.61 0.05 0  0.62 0.05 0  0.63 0.05 0  0.64 0.05 0  0.65 0.05 0  0.66 0.05 0  0.67 0.05 0  0.68 0.05 0  0.6899999999999999 0.05 0  0.7 0.05 0  0.71 0.05 0  0.72 0.05 0  0.73 0.05 0  0.74 0.05 0  0.75 0.05 0  0.76 0.05 0  0.77 0.05 0  0.78 0.05 0  0.79 0.05 0  0.8 0.05 0  0.8100000000000001 0.05 0  0.82 0.05 0  0.83 0.05 0  0.84 0.05 0  0.85 0.05 0  0.86 0.05 0  0.87 0.05 0  0.88 0.05 0  0.89 0.05 0  0.9 0.05 0  0.91 0.05 0  0.92 0.05 0  0.93 0.05 0  0.9399999999999999 0.05 0  0.95 0.05 0  0.96 0.05 0  0.97 0.05 0  0.98 0.05 0  0.99 0.05 0  1 0.05 0  0 0.06 0  0.01 0.06 0  0.02 0.06 0  0.03 0.06 0  0.04 0.06 0  0.05 0.06 0  0.06 0.06 0  0.07000000000000001 0.06 0  0.08 0.06 0  0.09 0.06 0  0.1 0.06 0  0.11 0.06 0  0.12 0.06 0  0.13 0.06 0  0.14 0.06 0  0.15 0.06 0  0.16 0.06 0  0.17 0.06 0  0.18 0.06 0  0.19 0.06 0  0.2 0.06 0  0.21 0.06 0  0.22 0.06 0  0.23 0.06 0  0.24 0.06 0  0.25 0.06 0  0.26 0.06 0  0.27 0.06 0  0.28 0.06 0  0.29 0.06 0  0.3 0.06 0  0.31 0.06 0  0.32 0.06 0  0.33 0.06 0  0.34 0.06 0  0.35 0.06 0  0.36 0.06 0  0.37 0.06 0  0.38 0.06 0  0.39 0.06 0  0.4 0.06 0  0.41 0.06 0  0.42 0.06 0  0.43 0.06 0  0.44 0.06 0  0.45 0.06 0  0.46 0.06 0  0.47 0.06 0  0.48 0.06 0  0.49 0.06 0  0.5 0.06 0  0.51 0.06 0  0.52 0.06 0  0.53 0.06 0  0.54 0.06 0  0.55 0.06 0  0.5600000000000001 0.06 0  0.57 0.06 0  0.58 0.06 0  0.59 0.06 0  0.6 0.06 0  0.61 0.06 0  0.62 0.06 0  0.63 0.06 0  0.64 0.06 0  0.65 0.06 0  0.66 0.06 0  0.67 0.06 0  0.68 0.06 0  0.6899999999999999 0.06 0  0.7 0.06 0  0.71 0.06 0  0.72 0.06 0  0.73 0.06 0  0.74 0.06 0  0.75 0.06 0  0.76 0.06 0  0.77 0.06 0  0.78 0.06 0  0.79 0.06 0  0.8 0.06 0  0.8100000000000001 0.06 0  0.82 0.06 0  0.83 0.06 0  0.84 0.06 0  0.85 0.06 0  0.86 0.06 0  0.87 0.06 0  0.88 0.06 0  0.89 0.06 0  0.9 0.06 0  0.91 0.06 0  0.92 0.06 0  0.93 0.06 0  0.9399999999999999 0.06 0  0.95 0.06 0  0.96 0.06 0  0.97 0.06 0  0.98 0.06 0  0.99 0.06 0  1 0.06 0  0 0.07000000000000001 0  0.01 0.07000000000000001 0  0.02 0.07000000000000001 0  0.03 0.07000000000000001 0  0.04 0.07000000000000001 0  0.05 0.07000000000000001 0  0.06 0.07000000000000001 0  0.07000000000000001 0.07000000000000001 0  0.08 0.07000000000000001 0  0.09 0.07000000000000001 0  0.1 0.07000000000000001 0  0.11 0.07000000000000001 0  0.12 0.07000000000000001 0  0.13 0.07000000000000001 0  0.14 0.07000000000000001 0  0.15 0.07000000000000001 0  0.16 0.07000000000000001 0  0.17 0.0700
[...]
<PointData  Scalars="f_827"> 
<DataArray  type="Float64"  Name="f_827"  format="ascii">2.6417412913883891e-08  1.7135401933586467e-03  2.8876723496181526e-03  3.9143206484812364e-03  4.8529738412557239e-03  5.7303853714818611e-03  6.5615305952954660e-03  7.3559466958180719e-03  8.1202307269053146e-03  8.8592124643142242e-03  9.5765767031083023e-03  1.0275223566268220e-02  1.0957491253140160e-02  1.1625300984021671e-02  1.2280255292606060e-02  1.2923706992027691e-02  1.3556808970774815e-02  1.4180551037725121e-02  1.4795787767836447e-02  1.5403259939826885e-02  1.6003611312418925e-02  1.6597401944950862e-02  1.7185118912665175e-02  1.7767185027725119e-02  1.8343966012573747e-02  1.8915776457087564e-02  1.9482884808951193e-02  2.0045517587348644e-02  2.0603862966551856e-02  2.1158073843663465e-02  2.1708270480482166e-02  2.2254542791012535e-02  2.2796952331996124e-02  2.3335534042902700e-02  2.3870297773289782e-02  2.4401229628742215e-02  2.4928293161317564e-02  2.5451430426221319e-02  2.5970562923092272e-02  2.6485592437604337e-02  2.6996401796953534e-02  2.7502855551092029e-02  2.8004800590214284e-02  2.8502066707932924e-02  2.8994467118751255e-02  2.9481798937814323e-02  2.9963843630469892e-02  3.0440367438868427e-02  3.0911121792671886e-02  3.1375843710901817e-02  3.1834256202038058e-02  3.2286068669672707e-02  3.2730977331327391e-02  3.3168665658459988e-02  3.3598804846218314e-02  3.4021054322151953e-02  3.4435062303876357e-02  3.4840466416602843e-02  3.5236894382524919e-02  3.5623964795282653e-02  3.6001287994152309e-02  3.6368467054228304e-02  3.6725098910709811e-02  3.7070775637495154e-02  3.7405085902658765e-02  3.7727616626051980e-02  3.8037954867278290e-02  3.8335689975667060e-02  3.8620416037647140e-02  3.8891734661133194e-02  3.9149258141216940e-02  3.9392613056622831e-02  3.9621444352066833e-02  3.9835419967836398e-02  4.0034236084578838e-02  4.0217623058367721e-02  4.0385352128518556e-02  4.0537242988138357e-02  4.0673172314745591e-02  4.0793083365027800e-02  4.0896996743278596e-02  4.0985022456326070e-02  4.1057373367504611e-02  4.1114380156528789e-02  4.1156507878344573e-02  4.1184374188392062e-02  4.1198769258909251e-02  4.1200677343345628e-02  4.1191299842680065e-02  4.1172079572212548e-02  4.1144725695454382e-02  4.1111238443677624e-02  4.1073932209359724e-02  4.1035454771005030e-02  4.0998799048168368e-02  4.0967301423114569e-02  4.0944616205174360e-02  4.0934646450485113e-02  4.0941388962822595e-02  4.0968590654834637e-02  4.1018849547962095e-02  3.7606239772499811e-08  1.1781517441651758e-03  2.3413928833187587e-03  3.3940335661131354e-03  4.3614085410118584e-03  5.2652274423509258e-03  6.1199754279104646e-03  6.9354996994258795e-03  7.7187929982838206e-03  8.4750303582996969e-03  9.2081755143009914e-03  9.9213502386371229e-03  1.0617069234145130e-02  1.1297395527548486e-02  1.1964046878262805e-02  1.2618470859357876e-02  1.3261899232134661e-02  1.3895388232333406e-02  1.4519849022901000e-02  1.5136071126297938e-02  1.5744740742792179e-02  1.6346455275773684e-02  1.6941734997871109e-02  1.7531032529857004e-02  1.8114740623840945e-02  1.8693198615590313e-02  1.9266697820471509e-02  1.9835486082115189e-02  2.0399771634925477e-02  2.0959726405916354e-02  2.1515488854580579e-02  2.2067166429170285e-02  2.2614837702189364e-02  2.3158554235854379e-02  2.3698342218895465e-02  2.4234203908704711e-02  2.4766118907026239e-02  2.5294045292763738e-02  2.5817920631806855e-02  2.6337662880831711e-02  2.6853171199683463e-02  2.7364326685058168e-02  2.7870993036705337e-02  2.8373017166182395e-02  2.8870229757261220e-02  2.9362445786380125e-02  2.9849465011007083e-02  3.0331072433422476e-02  3.0807038747208807e-02  3.1277120773652412e-02  3.1741061895293431e-02  3.2198592494016520e-02  3.2649430401335014e-02  3.3093281368898955e-02  3.3529839567750332e-02  3.3958788125457627e-02  3.4379799710998783e-02  3.4792537178129579e-02  3.5196654278991414e-02  3.5591796460879239e-02  3.5977601760436802e-02  3.6353701811070969e-02  3.6719722981116081e-02  3.7075287662239456e-02  3.7420015729788876e-02  3.7753526199261533e-02  3.8075439105854036e-02  3.8385377637142330e-02  3.8682970552379195e-02  3.8967854925688793e-02  3.9239679254612525e-02  3.9498106979998546e-02  3.9742820468149337e-02  3.9973525511379525e-02  4.0189956408658391e-02  4.0391881693680395e-02  4.0579110583366218e-02  4.0751500225172238e-02  4.0908963826289488e-02  4.1051479751284738e-02  4.1179101676163392e-02  4.1291969885100532e-02  4.1390323789589872e-02  4.1474515736293273e-02  4.1545026146340702e-02  4.1602479990909130e-02  4.1647664549514463e-02  4.1681548309991538e-02  4.1705300740263899e-02  4.1720312473738391e-02  4.1728215175772951e-02  4.1730899957395866e-02  4.1730532610677488e-02  4.1729563056219762e-02  4.1730725053696474e-02  4.1737020177605340e-02  4.1751676976398852e-02  4.1778072073428589e-02  4.1819597112420108e-02  4.1879468084337568e-02  4.1960490650074206e-02  7.1829085139175383e-09  9.7718874570072831e-04  2.0056583741120989e-03  3.0092780052866906e-03  3.9633638905167811e-03  4.8684499831602689e-03  5.7306400091014960e-03  6.5562484927410482e-03  7.3506725592961284e-03  8.1183266669712911e-03  8.8628002946446495e-03  9.5870303216419959e-03  1.0293443571415532e-02  1.0984066463183994e-02  1.1660607738784622e-02  1.2324520849568039e-02  1.2977051348265232e-02  1.3619273267770357e-02  1.4252117370717615e-02  1.4876393344856270e-02  1.5492807441728169e-02  1.6101976647467150e-02  1.6704440184951010e-02  1.7300668940069017e-02  1.7891073256395679e-02  1.8476009434759515e-02  1.9055785195137041e-02  1.9630664299736384e-02  2.0200870492330231e-02  2.0766590875820275e-02  2.1327978824816136e-02  2.1885156510653397e-02  2.2438217101283572e-02  2.2987226686774463e-02  2.3532225971975445e-02  2.4073231770645100e-02  2.4610238329573295e-02  2.5143218506627620e-02  2.5672124822967275e-02  2.6196890406706301e-02  2.6717429842927031e-02  2.7233639943030890e-02  2.7745400444880223e-02  2.8252574653964642e-02  2.8755010034867048e-02  2.9252538761561551e-02  2.9744978234525647e-02  3.0232131572256377e-02  3.0713788084537327e-02  3.1189723734689222e-02  3.1659701598041386e-02  3.2123472323986831e-02  3.2580774609212992e-02  3.3031335690045370e-02  3.3474871862295814e-02  3.3911089037573436e-02  3.4339683345710158e-02  3.4760341793762660e-02  3.5172742993010771e-02  3.5576557966463813e-02  3.5971451050649236e-02  3.6357080906881431e-02  3.6733101658825200e-02  3.7099164174988271e-02  3.7454917516814061e-02  3.7800010575319294e-02  3.8134093921752446e-02  3.8456821900543628e-02  3.8767854995891735e-02  3.9066862506700717e-02  3.9353525568216835e-02  3.9627540562638987e-02  3.9888622965117075e-02  4.0136511675879755e-02  4.0370973893628807e-02  4.0591810589663269e-02  4.0798862646227896e-02  4.0992017725993313e-02  4.1171217941928566e-02  4.1336468397470141e-02  4.1487846664959992e-02  4.1625513264593246e-02  4.1749723194927958e-02  4.1860838547097802e-02  4.1959342205131915e-02  4.2045852590042142e-02  4.2121139339878946e-02  4.2186139724078781e-02  4.2241975457721348e-02  4.2289969395872692e-02  4.2331661331754873e-02  4.2368821772225077e-02  4.2403462094644885e-02  4.2437838882733656e-02  4.2474449517808668e-02  4.2516015426773017e-02  4.2565449326443183e-02  4.2625804937013331e-02  4.2700215131815031e-02  4.2791836952555500e-02  4.2903823434150758e-02  2.5957811584420778e-09  8.7779465521892306e-04  1.8036719600056661e-03  2.7385985438697284e-03  3.6550493283035550e-03  4.5418945510166129e-03  5.3970329458964475e-03  6.2220083363582540e-03  7.0195236509162477e-03  7.7924495794671365e-03  8.5434677975020044e-03  9.2749670238248053e-03  9.9890353593871366e-03  1.0687486121991453e-02  1.1371892392014424e-02  1.2043620884377004e-02  1.2703862002128649e-02  1.3353655412113398e-02  1.3993911415362981e-02  1.4625428677261069e-02  1.5248908919134125e-02  1.5864969115854541e-02  1.6474151660819499e-02  1.7076932877123634e-02  1.7673730181284795e-02  1.8264908145620887e-02  1.8850783656580612e-02  1.9431630327360512e-02  2.0007682292205082e-02  2.0579137485284844e-02  2.1146160487635696e-02  2.1708885010231303e-02  2.2267416068993118e-02  2.2821831897747089e-02  2.3372185637283091e-02  2.3918506832360756e-02  2.4460802763411820e-02  2.4999059635570746e-02  2.5533243644322464e-02  2.6063301934350268e-02  2.6589163465962195e-02  2.7110739801694463e-02  2.7627925824250773e-02  2.8140600395780667e-02  2.8648626967591410e-02  2.9151854148673398e-02  2.9650116240888862e-02  3.0143233748292735e-02  3.0631013867811932e-02  3.1113250968391629e-02  3.1589727065713294e-02  3.2060212299698063e-02  3.2524465422220643e-02  3.2982234302774638e-02  3.3433256460260359e-02  3.3877259629586993e-02  3.4313962372436786e-02  3.4743074742292358e-02  3.5164299014723947e-02  3.5577330494949731e-02  3.5981858415858547e-02  3.6377566940998959e-02  3.6764136288535122e-02  3.7141243993836566e-02  3.7508566330232328e-02  3.7865779909521030e-02  3.8212563486109991e-02  3.8548599991151157e-02  3.8873578825761590e-02  3.9187198445354440e-02  3.9489169270243249e-02  3.9779216960999099e-02  4.0057086100462096e-02  4.0322544327791546e-02  4.0575386973327118e-02  4.0815442246172895e-02  4.1042577029064865e-02  4.1256703336879093e-02  4.1457785495631443e-02  4.1645848097353028e-02  4.1820984781945222e-02  4.1983367888841584e-02  4.2133259007525355e-02  4.2271020434597191e-02  4.2397127513542097e-02  4.2512181788193798e-02  4.2616924837822437e-02  4.2712252575531351e-02  4.2799229676139951e-02  4.2879103648639255e-02  4.2953317876970085e-02  4.3023522722698521e-02  4.3091583532025107e-02  4.3159584174687668e-02  4.3229824707950719e-02  4.3304812226250641e-02  4.3387245552280546e-02  4.3479998092640804e-02  4.3586109532627114e-02  4.3708805613196226e-02  4.3851587098513299e-02  9.1028396781551949e-10  8.1700947017499491e-04  1.6725563112149537e-03  2.5466679686535500e-03  3.4194817571078793e-03  4.2781641967922319e-03  5.1165077518937358e-03  5.9324637200432288e-03  6.7261624636058325e-03  7.4987437527520521e-03  8.2517423596375431e-03  8.9867845678113355e-03  9.7054462320116369e-03  1.0409192072375516e-02  1.1099354931407287e-02  1.1777134122247341e-02  1.2443602383407465e-02  1.3099716215371388e-02  1.3746327043169245e-02  1.4384192005521655e-02  1.5013983858635845e-02  1.5636299826652222e-02  1.6251669397399793e-02  1.6860561137401992e-02  1.7463388628722234e-02  1.8060515635679335e-02  1.8652260603967352e-02  1.9238900584657215e-02  1.9820674664189804e-02  2.0397786970364346e-02  2.0970409314197261e-02  2.1538683518617610e-02  2.2102723477294976e-02  2.2662616980387715e-02  2.3218427338516083e-02  2.3770194831670619e-02  2.4317938005935444e-02  2.4861654837717306e-02  2.5401323782519834e-02  2.5936904723109031e-02  2.6468339830102112e-02  2.6995554346519519e-02  2.7518457306621835e-02  2.8036942198364750e-02  2.8550887578017298e-02  2.9060157644871579e-02  2.9564602783509850e-02  3.0064060080761089e-02  3.0558353824274770e-02  3.1047295989540199e-02  3.1530686722188367e-02  3.2008314822522171e-02  3.2479958239425080e-02  3.2945384581103229e-02  3.3404351650511373e-02  3.3856608013818255e-02  3.4301893610867183e-02  3.4739940417299699e-02  3.5170473168840984e-02  3.5593210159191570e-02  3.6007864124051762e-02  3.6414143225022351e-02  3.6811752148492631e-02  3.7200393336146401e-02  3.7579768365407433e-02  3.7949579500000878e-02  3.8309531432844095e-02  3.8659333245690083e-02  3.8998700612330316e-02  3.9327358274703871e-02  3.9645042823938305e-02  3.9951505821112072e-02  4.0246517295337444e-02  4.0529869659502234e-02  4.0801382086567264e-02  4.1060905391514260e-02  4.1308327465613658e-02  4.1543579310320530e-02  4.1766641717356112e-02  4.1977552638795858e-02  4.2176415285520005e-02  4.2363406983170454e-02  4.2538788800569126e-02  4.2702915944812445e-02  4.2856248888071845e-02  4.2999365151315617e-02  4.3132971617353473e-02  4.3257917177633262e-02  4.3375205432916987e-02  4.3486007068838324e-02  4.3591671420826171e-02  4.3693736648610454e-02  4.3793937901653722e-02  4.3894212959388057e-02  4.3996705231542331e-02  4.4103764962546067e-02  4.4217951351172735e-02  4.4342041393300238e-02  4.4479055742047073e-02  4.4632318685732336e-02  4.4805582508031384e-02  3.3180942768917646e-10  7.7497272782595930e-04  1.5806011668713274e-03  2.4060129821386802e-03  3.2381005078123324e-03  4.0660359595754295e-03  4.8827205939228832e-03  5.6842841898126755e-03  6.4690712268248626e-03  7.2367708612962722e-03  7.9878231503707313e-03  8.7230526069605151e-03  9.4434537365936273e-03  1.0150069901959904e-02  1.0843927259766519e-02  1.1526000527293804e-02  1.2197196888764077e-02  1.2858350085678852e-02  1.3510220094313758e-02  1.4153495744047338e-02  1.4788798761053981e-02  1.5416688378437755e-02  1.6037666035674129e-02  1.6652179912209908e-02  1.7260629168647883e-02  1.7863367842690409e-02  1.8460708388487786e-02  1.9052924870520821e-02  1.9640255834498757e-02  2.0222906882660353e-02  2.0801052982106480e-02  2.1374840534032914e-02  2.1944389229952996e-02  2.2509793718776917e-02  2.3071125106281187e-02  2.3628432306236232e-02  2.4181743260362851e-02  2.4731066042398768e-02  2.5276389859885406e-02  2.5817685965836900e-02  2.6354908491203304e-02  2.6887995207985349e-02  2.7416868231969902e-02  2.7941434673326028e-02  2.8461587242708680e-02  2.8977204820055249e-02  2.9488152992910095e-02  2.9994284570869372e-02  3.0495440082597483e-02  3.0991448261812937e-02  3.1482126528682895e-02  3.1967281473190653e-02  3.2446709347251135e-02  3.2920196572648899e-02  3.3387520272256152e-02  3.3848448832466176e-02  3.4302742505342723e-02  3.4750154059656521e-02  3.5190429490747271e-02  3.5623308800032685e-02  3.6048526855975177e-02  3.6465814349443029e-02  3.6874898857641621e-02  3.7275506032178093e-02  3.7667360928340457e-02  3.8050189494341878e-02  3.8423720241086978e-02  3.8787686114966406e-02  3.9141826598268953e-02  3.9485890063985209e-02  3.9819636414059639e-02  4.0142840032453470e-02  4.0455293086668793e-02  4.0756809213558620e-02  4.1047227627168351e-02  4.1326417687876274e-02  4.1594283972980754e-02  4.1850771888835896e-02  4.2095873863280488e-02  4.2329636153962118e-02  4.2552166302612320e-02  4.2763641256665132e-02  4.2964316166946126e-02  4.3154533852517822e-02  4.3334734900154534e-02  4.3505468335425387e-02  4.3667402764598157e-02  4.3821337842170828e-02  4.3968215870673337e-02  4.4109133294453068e-02  4.4245351821869935e-02  4.4378308927694309e-02  4.4509627596639352e-02  4.4641125446430306e-02  4.4774823927353498e-02  4.4912959276573794e-02  4.5057998441112766e-02  4.5212665326932966e-02  4.5379985469525284e-02  4.5563360512268489e-02  4.5766686199783642e-02  1.0632278382075746e-10  7.4366076449156244e-04  1.5121282206449803e-03  2.2990828222563113e-03  3.0959415443112845e-03  3.8944407421384140e-03  4.6881067975671573e-03  5.4725633142790019e-03  6.2452163863497175e-03  7.0047725949437933e-03  7.7508059935227271e-03  8.4834336978845161e-03  9.2030932827781176e-03  9.9103973190867514e-03  1.0606041219040111e-02  1.1290746249593468e-02  1.1965225171318828e-02  1.2630162220544543e-02  1.3286202091089310e-02  1.3933944507710561e-02  1.4573942230273597e-02  1.5206701122520563e-02  1.5832681424048201e-02  1.6452299684428330e-02  1.7065931021888980e-02  1.7673911498398042e-02  1.8276540485344963e-02  1.8874082946367061e-02  1.9466771597024389e-02  2.0054808921872187e-02  2.0638369042421875e-02  2.1217599437338745e-02  2.1792622520832083e-02  2.2363537087724844e-02  2.2930419634916474e-02  2.3493325569368527e-02  2.4052290312676548e-02  2.4607330311945664e-02  2.5158443966201899e-02  2.5705612477031254e-02  2.6248800631590387e-02  2.6787957525626040e-02  2.7323017233672219e-02  2.7853899433198475e-02  2.8380509989147370e-02  2.8902741505037712e-02  2.9420473846617938e-02  2.9933574643932877e-02  3.0441899777616542e-02  3.0945293855241401e-02  3.1443590683644128e-02  3.1936613743306398e-02  3.2424176671100806e-02  3.2906083758013231e-02  3.3382130468835397e-02  3.3852103991277083e-02  3.4315783822490571e-02  3.4772942401624665e-02  3.5223345797746289e-02  3.5666754463283691e-02  3.6102924064060418e-02  3.6531606398017377e-02  3.6952550415852492e-02  3.7365503358064683e-02  3.7770212024257718e-02  3.8166424192053031e-02  3.8553890204565691e-02  3.8932364747126226e-02  3.9301608835737890e-02  3.9661392041671628e-02  4.0011494978534304e-02  4.0351712080109112e-02  4.0681854699161024e-02  4.1001754559155668e-02  4.1311267592358418e-02  4.1610278198894804e-02  4.1898703961892603e-02  4.2176500853560006e-02  4.2443668965678104e-02  4.2700258795165390e-02  4.2946378110701677e-02  4.3182199419415278e-02  4.3407968042910458e-02  4.3624010799022152e-02  4.3830745269461374e-02  4.4028689614201998e-02  4.4218472872145843e-02  4.4400845666930241e-02  4.4576691221887121e-02  4.4747036588546986e-02  4.4913064024582852e-02  4.5076122545024952e-02  4.5237739852618045e-02  4.5399635180341964e-02  4.5563734110714411e-02  4.5732187222487057e-02  4.5907395461990137e-02  4.6092046360516545e-02  4.6289166387044146e-02  4.6502195143609752e-02  4.6735084781188756e-02  1.2720297540563494e-11  7.1916880279169321e-04  1.4588261232212822e-03  2.2150821793814075e-03  2.9822195633341900e-03  3.7541373874758147e-03  4.5254487842102111e-03  5.2919858151510134e-03  6.0508437673324365e-03  6.8001922142866241e-03  7.5390201186950707e-03  8.2668995226075834e-03  8.9837967685212419e-03  9.6899329437890539e-03  1.0385685293657075e-02  1.1071519574323407e-02  1.1747944603004894e-02  1.2415482273457486e-02  1.3074648159712878e-02  1.3725939288161527e-02  1.4369826723317807e-02  1.5006751362391225e-02  1.5637121850882334e-02  1.6261313884200383e-02  1.6879670399693538e-02  1.7492502325605210e-02  1.8100089663242797e-02  1.8702682753014163e-02  1.9300503625439377e-02  1.9893747372469160e-02  2.0482583497687456e-02  2.1067157219713622e-02  2.1647590713780269e-02  2.2223984283618759e-02  2.2796417460574255e-02  2.3364950030023642e-02  2.3929622987223339e-02  2.4490459426006649e-02  2.5047465364542925e-02  2.5600630512824719e-02  2.6149928986786412e-02  2.6695319974056182e-02  2.7236748356369193e-02  2.7774145293644723e-02  2.8307428774704595e-02  2.8836504139581332e-02  2.9361264578364410e-02  2.9881591611554865e-02  3.0397355556966703e-02  3.0908415988317024e-02  3.1414622190800476e-02  3.1915813619153473e-02  3.2411820363969009e-02  3.2902463632346481e-02  3.3387556249342448e-02  3.3866903187136518e-02  3.4340302129347085e-02  3.4807544078528090e-02  3.5268414015547908e-02  3.5722691620318978e-02  3.6170152064185168e-02  3.6610566885223073e-02  3.7043704958747516e-02  3.7469333576452116e-02  3.7887219648853825e-02  3.8297131047052180e-02  3.8698838101253165e-02  3.9092115275036088e-02  3.9476743035947795e-02  3.9852509944678004e-02  4.0219214986767032e-02  4.0576670172492640e-02  4.0924703432213515e-02  4.1263161835965012e-02  4.1591915167390615e-02  4.1910859883076142e-02  4.2219923488856295e-02  4.2519069364566522e-02  4.2808302067788864e-02  4.3087673145211350e-02  4.3357287477071099e-02  4.3617310175600180e-02  4.3867974052369252e-02  4.4109587662004540e-02  4.4342543921402078e-02  4.4567329295299260e-02  4.4784533532900253e-02  4.4994859939734039e-02  4.5199136179883519e-02  4.5398325635335142e-02  4.5593539414997705e-02  4.5786049224736940e-02  4.5977301505203870e-02  4.6168933541562353e-02  4.6362792666546776e-02  4.6560960209565620e-02  4.6765782433114599e-02  4.6979911197270942e-02  4.7206357197575641e-02  4.7448557666948644e-02  4.7710457348794338e-02  -2.6607299066773868e-11  6.9934221762408253e-04  1.4159344090792002e-03  2.1472658365761718e-03  2.8894350758778848e-03  3.6379660004779621e-03  4.3885538731664999e-03  5.1375351378202044e-03  5.8820695050119734e-03  6.6201233606476709e-03  7.3503535504233957e-03  8.0719613273014974e-03  8.7845539128495395e-03  9.4880286817410047e-03  1.0182482731325869e-02  1.0868145191504240e-02  1.1545327944424581e-02  1.2214390450413858e-02  1.2875715036313259e-02  1.3529689788322878e-02  1.4176696900372151e-02  1.48171049015059