<?xml version="1.0"?>
<VTKFile type="UnstructuredGrid"  version="0.1"  >
<UnstructuredGrid>
<Piece  NumberOfPoints="2601" NumberOfCells="5000">
<Points>
<DataArray  type="Float64"  NumberOfComponents="3"  format="ascii">0 0 0  0.02 0 0  0.04 0 0  0.06 0 0  0.08 0 0  0.1 0 0  0.12 0 0  0.14 0 0  0.16 0 0  0.18 0 0  0.2 0 0  0.22 0 0  0.24 0 0  0.26 0 0  0.28 0 0  0.3 0 0  0.32 0 0  0.34 0 0  0.36 0 0  0.38 0 0  0.4 0 0  0.42 0 0  0.44 0 0  0.46 0 0  0.48 0 0  0.5 0 0  0.52 0 0  0.54 0 0  0.5600000000000001 0 0  0.58 0 0  0.6 0 0  0.62 0 0  0.64 0 0  0.66 0 0  0.68 0 0  0.7 0 0  0.72 0 0  0.74 0 0  0.76 0 0  0.78 0 0  0.8 0 0  0.82 0 0  0.84 0 0  0.86 0 0  0.88 0 0  0.9 0 0  0.92 0 0  0.9399999999999999 0 0  0.96 0 0  0.98 0 0  1 0 0  0 0.02 0  0.02 0.02 0  0.04 0.02 0  0.06 0.02 0  0.08 0.02 0  0.1 0.02 0  0.12 0.02 0  0.14 0.02 0  0.16 0.02 0  0.18 0.02 0  0.2 0.02 0  0.22 0.02 0  0.24 0.02 0  0.26 0.02 0  0.28 0.02 0  0.3 0.02 0  0.32 0.02 0  0.34 0.02 0  0.36 0.02 0  0.38 0.02 0  0.4 0.02 0  0.42 0.02 0  0.44 0.02 0  0.46 0.02 0  0.48 0.02 0  0.5 0.02 0  0.52 0.02 0  0.54 0.02 0  0.5600000000000001 0.02 0  0.58 0.02 0  0.6 0.02 0  0.62 0.02 0  0.64 0.02 0  0.66 0.02 0  0.68 0.02 0  0.7 0.02 0  0.72 0.02 0  0.74 0.02 0  0.76 0.02 0  0.78 0.02 0  0.8 0.02 0  0.82 0.02 0  0.84 0.02 0  0.86 0.02 0  0.88 0.02 0  0.9 0.02 0  0.92 0.02 0  0.9399999999999999 0.02 0  0.96 0.02 0  0.98 0.02 0  1 0.02 0  0 0.04 0  0.02 0.04 0  0.04 0.04 0  0.06 0.04 0  0.08 0.04 0  0.1 0.04 0  0.12 0.04 0  0.14 0.04 0  0.16 0.04 0  0.18 0.04 0  0.2 0.04 0  0.22 0.04 0  0.24 0.04 0  0.26 0.04 0  0.28 0.04 0  0.3 0.04 0  0.32 0.04 0  0.34 0.04 0  0.36 0.04 0  0.38 0.04 0  0.4 0.04 0  0.42 0.04 0  0.44 0.04 0  0.46 0.04 0  0.48 0.04 0  0.5 0.04 0  0.52 0.04 0  0.54 0.04 0  0.5600000000000001 0.04 0  0.58 0.04 0  0.6 0.04 0  0.62 0.04 0  0.64 0.04 0  0.66 0.04 0  0.68 0.04 0  0.7 0.04 0  0.72 0.04 0  0.74 0.04 0  0.76 0.04 0  0.78 0.04 0  0.8 0.04 0  0.82 0.04 0  0.84 0.04 0  0.86 0.04 0  0.88 0.04 0  0.9 0.04 0  0.92 0.04 0  0.9399999999999999 0.04 0  0.96 0.04 0  0.98 0.04 0  1 0.04 0  0 0.06 0  0.02 0.06 0  0.04 0.06 0  0.06 0.06 0  0.08 0.06 0  0.1 0.06 0  0.12 0.06 0  0.14 0.06 0  0.16 0.06 0  0.18 0.06 0  0.2 0.06 0  0.22 0.06 0  0.24 0.06 0  0.26 0.06 0  0.28 0.06 0  0.3 0.06 0  0.32 0.06 0  0.34 0.06 0  0.36 0.06 0  0.38 0.06 0  0.4 0.06 0  0.42 0.06 0  0.44 0.06 0  0.46 0.06 0  0.48 0.06 0  0.5 0.06 0  0.52 0.06 0  0.54 0.06 0  0.5600000000000001 0.06 0  0.58 0.06 0  0.6 0.06 0  0.62 0.06 0  0.64 0.06 0  0.66 0.06 0  0.68 0.06 0  0.7 0.06 0  0.72 0.06 0  0.74 0.06 0  0.76 0.06 0  0.78 0.06 0  0.8 0.06 0  0.82 0.06 0  0.84 0.06 0  0.86 0.06 0  0.88 0.06 0  0.9 0.06 0  0.92 0.06 0  0.9399999999999999 0.06 0  0.96 0.06 0  0.98 0.06 0  1 0.06 0  0 0.08 0  0.02 0.08 0  0.04 0.08 0  0.06 0.08 0  0.08 0.08 0  0.1 0.08 0  0.12 0.08 0  0.14 0.08 0  0.16 0.08 0  0.18 0.08 0  0.2 0.08 0  0.22 0.08 0  0.24 0.08 0  0.26 0.08 0  0.28 0.08 0  0.3 0.08 0  0.32 0.08 0  0.34 0.08 0  0.36 0.08 0  0.38 0.08 0  0.4 0.08 0  0.42 0.08 0  0.44 0.08 0  0.46 0.08 0  0.48 0.08 0  0.5 0.08 0  0.52 0.08 0  0.54 0.08 0  0.5600000000000001 0.08 0  0.58 0.08 0  0.6 0.08 0  0.62 0.08 0  0.64 0.08 0  0.66 0.08 0  0.68 0.08 0  0.7 0.08 0  0.72 0.08 0  0.74 0.08 0  0.76 0.08 0  0.78 0.08 0  0.8 0.08 0  0.82 0.08 0  0.84 0.08 0  0.86 0.08 0  0.88 0.08 0  0.9 0.08 0  0.92 0.08 0  0.9399999999999999 0.08 0  0.96 0.08 0  0.98 0.08 0  1 0.08 0  0 0.1 0  0.02 0.1 0  0.04 0.1 0  0.06 0.1 0  0.08 0.1 0  0.1 0.1 0  0.12 0.1 0  0.14 0.1 0  0.16 0.1 0  0.18 0.1 0  0.2 0.1 0  0.22 0.1 0  0.24 0.1 0  0.26 0.1 0  0.28 0.1 0  0.3 0.1 0  0.32 0.1 0  0.34 0.1 0  0.36 0.1 0  0.38 0.1 0  0.4 0.1 0  0.42 0.1 0  0.44 0.1 0  0.46 0.1 0  0.48 0.1 0  0.5 0.1 0  0.52 0.1 0  0.54 0.1 0  0.5600000000000001 0.1 0  0.58 0.1 0  0.6 0.1 0  0.62 0.1 0  0.64 0.1 0  0.66 0.1 0  0.68 0.1 0  0.7 0.1 0  0.72 0.1 0  0.74 0.1 0  0.76 0.1 0  0.78 0.1 0  0.8 0.1 0  0.82 0.1 0  0.84 0.1 0  0.86 0.1 0  0.88 0.1 0  0.9 0.1 0  0.92 0.1 0  0.9399999999999999 0.1 0  0.96 0.1 0  0.98 0.1 0  1 0.1 0  0 0.12 0  0.02 0.12 0  0.04 0.12 0  0.06 0.12 0  0.08 0.12 0  0.1 0.12 0  0.12 0.12 0  0.14 0.12 0  0.16 0.12 0  0.18 0.12 0  0.2 0.12 0  0.22 0.12 0  0.24 0.12 0  0.26 0.12 0  0.28 0.12 0  0.3 0.12 0  0.32 0.12 0  0.34 0.12 0  0.36 0.12 0  0.38 0.12 0  0.4 0.12 0  0.42 0.12 0  0.44 0.12 0  0.46 0.12 0  0.48 0.12 0  0.5 0.12 0  0.52 0.12 0  0.54 0.12 0  0.5600000000000001 0.12 0  0.58 0.12 0  0.6 0.12 0  0.62 0.12 0  0.64 0.12 0  0.66 0.12 0  0.68 0.12 0  0.7 0.12 0  0.72 0.12 0  0.74 0.12 0  0.76 0.12 0  0.78 0.12 0  0.8 0.12 0  0.82 0.12 0  0.84 0.12 0  0.86 0.12 0  0.88 0.12 0  0.9 0.12 0  0.92 0.12 0  0.9399999999999999 0.12 0  0.96 0.12 0  0.98 0.12 0  1 0.12 0  0 0.14 0  0.02 0.14 0  0.04 0.14 0  0.06 0.14 0  0.08 0.14 0  0.1 0.14 0  0.12 0.14 0  0.14 0.14 0  0.16 0.14 0  0.18 0.14 0  0.2 0.14 0  0.22 0.14 0  0.24 0.14 0  0.26 0.14 0  0.28 0.14 0  0.3 0.14 0  0.32 0.14 0  0.34 0.14 0  0.36 0.14 0  0.38 0.14 0  0.4 0.14 0  0.42 0.14 0  0.44 0.14 0  0.46 0.14 0  0.48 0.14 0  0.5 0.14 0  0.52 0.14 0  0.54 0.14 0  0.5600000000000001 0.14 0  0.58 0.14 0  0.6 0.14 0  0.62 0.14 0  0.64 0.14 0  0.66 0.14 0  0.68 0.14 0  0.7 0.14 0  0.72 0.14 0  0.74 0.14 0  0.76 0.14 0  0.78 0.14 0  0.8 0.14 0  0.82 0.14 0  0.84 0.14 0  0.86 0.14 0  0.88 0.14 0  0.9 0.14 0  0.92 0.14 0  0.9399999999999999 0.14 0  0.96 0.14 0  0.98 0.14 0  1 0.14 0  0 0.16 0  0.02 0.16 0  0.04 0.16 0  0.06 0.16 0  0.08 0.16 0  0.1 0.16 0  0.12 0.16 0  0.14 0.16 0  0.16 0.16 0  0.18 0.16 0  0.2 0.16 0  0.22 0.16 0  0.24 0.16 0  0.26 0.16 0  0.28 0.16 0  0.3 0.16 0  0.32 0.16 0  0.34 0.16 0  0.36 0.16 0  0.38 0.16 0  0.4 0.16 0  0.42 0.16 0  0.44 0.16 0  0.46 0.16 0  0.48 0.16 0  0.5 0.16 0  0.52 0.16 0  0.54 0.16 0  0.5600000000000001 0.16 0  0.58 0.16 0  0.6 0.16 0  0.62 0.16 0  0.64 0.16 0  0.66 0.16 0  0.68 0.16 0  0.7 0.16 0  0.72 0.16 0  0.74 0.16 0  0.76 0.16 0  0.78 0.16 0  0.8 0.16 0  0.82 0.16 0  0.84 0.16 0  0.86 0.16 0  0.88 0.16 0  0.9 0.16 0  0.92 0.16 0  0.9399999999999999 0.16 0  0.96 0.16 0  0.98 0.16 0  1 0.16 0  0 0.18 0  0.02 0.18 0  0.04 0.18 0  0.06 0.18 0  0.08 0.18 0  0.1 0.18 0  0.12 0.18 0  0.14 0.18 0  0.16 0.18 0  0.18 0.18 0  0.2 0.18 0  0.22 0.18 0  0.24 0.18 0  0.26 0.18 0  0.28 0.18 0  0.3 0.18 0  0.32 0.18 0  0.34 0.18 0  0.36 0.18 0  0.38 0.18 0  0.4 0.18 0  0.42 0.18 0  0.44 0.18 0  0.46 0.18 0  0.48 0.18 0  0.5 0.18 0  0.52 0.18 0  0.54 0.18 0  0.5600000000000001 0.18 0  0.58 0.18 0  0.6 0.18 0  0.62 0.18 0  0.64 0.18 0  0.66 0.18 0  0.68 0.18 0  0.7 0.18 0  0.72 0.18 0  0.74 0.18 0  0.76 0.18 0  0.78 0.18 0  0.8 0.18 0  0.82 0.18 0  0.84 0.18 0  0.86 0.18 0  0.88 0.18 0  0.9 0.18 0  0.92 0.18 0  0.9399999999999999 0.18 0  0.96 0.18 0  0.98 0.18 0  1 0.18 0  0 0.2 0  0.02 0.2 0  0.04 0.2 0  0.06 0.2 0  0.08 0.2 0  0.1 0.2 0  0.12 0.2 0  0.14 0.2 0  0.16 0.2 0  0.18 0.2 0  0.2 0.2 0  0.22 0.2 0  0.24 0.2 0  0.26 0.2 0  0.28 0.2 0  0.3 0.2 0  0.32 0.2 0  0.34 0.2 0  0.36 0.2 0  0.38 0.2 0  0.4 0.2 0  0.42 0.2 0  0.44 0.2 0  0.46 0.2 0  0.48 0.2 0  0.5 0.2 0  0.52 0.2 0  0.54 0.2 0  0.5600000000000001 0.2 0  0.58 0.2 0  0.6 0.2 0  0.62 0.2 0  0.64 0.2 0  0.66 0.2 0  0.68 0.2 0  0.7 0.2 0  0.72 0.2 0  0.74 0.2 0  0.76 0.2 0  0.78 0.2 0  0.8 0.2 0  0.82 0.2 0  0.84 0.2 0  0.86 0.2 0  0.88 0.2 0  0.9 0.2 0  0.92 0.2 0  0.9399999999999999 0.2 0  0.96 0.2 0  0.98 0.2 0  1 0.2 0  0 0.22 0  0.02 0.22 0  0.04 0.22 0  0.06 0.22 0  0.08 0.22 0  0.1 0.22 0  0.12 0.22 0  0.14 0.22 0  0.16 0.22 0  0.18 0.22 0  0.2 0.22 0  0.22 0.22 0  0.24 0.22 0  0.26 0.22 0  0.28 0.22 0  0.3 0.22 0  0.32 0.22 0  0.34 0.22 0  0.36 0.22 0  0.38 0.22 0  0.4 0.22 0  0.42 0.22 0  0.44 0.22 0  0.46 0.22 0  0.48 0.22 0  0.5 0.22 0  0.52 0.22 0  0.54 0.22 0  0.5600000000000001 0.22 0  0.58 0.22 0  0.6 0.22 0  0.62 0.22 0  0.64 0.22 0  0.66 0.22 0  0.68 0.22 0  0.7 0.22 0  0.72 0.22 0  0.74 0.22 0  0.76 0.22 0  0.78 0.22 0  0.8 0.22 0  0.82 0.22 0  0.84 0.22 0  0.86 0.22 0  0.88 0.22 0  0.9 0.22 0  0.92 0.22 0  0.9399999999999999 0.22 0  0.96 0.22 0  0.98 0.22 0  1 0.22 0  0 0.24 0  0.02 0.24 0  0.04 0.24 0  0.06 0.24 0  0.08 0.24 0  0.1 0.24 0  0.12 0.24 0  0.14 0.24 0  0.16 0.24 0  0.18 0.24 0  0.2 0.24 0  0.22 0.24 0  0.24 0.24 0  0.26 0.24 0  0.28 0.24 0  0.3 0.24 0  0.32 0.24 0  0.34 0.24 0  0.36 0.24 0  0.38 0.24 0  0.4 0.24 0  0.42 0.24 0  0.44 0.24 0  0.46 0.24 0  0.48 0.24 0  0.5 0.24 0  0.52 0.24 0  0.54 0.24 0  0.5600000000000001 0.24 0  0.58 0.24 0  0.6 0.24 0  0.62 0.24 0  0.64 0.24 0  0.66 0.24 0  0.68 0.24 0  0.7 0.24 0  0.72 0.24 0  0.74 0.24 0  0.76 0.24 0  0.78 0.24 0  0.8 0.24 0  0.82 0.24 0  0.84 0.24 0  0.86 0.24 0  0.88 0.24 0  0.9 0.24 0  0.92 0.24 0  0.9399999999999999 0.24 0  0.96 0.24 0  0.98 0.24 0  1 0.24 0  0 0.26 0  0.02 0.26 0  0.04 0.26 0  0.06 0.26 0  0.08 0.26 0  0.1 0.26 0  0.12 0.26 0  0.14 0.26 0  0.16 0.26 0  0.18 0.26 0  0.2 0.26 0  0.22 0.26 0  0.24 0.26 0  0.26 0.26 0  0.28 0.26 0  0.3 0.26 0  0.32 0.26 0  0.34 0.26 0  0.36 0.26 0  0.38 0.26 0  0.4 0.26 0  0.42 0.26 0  0.44 0.26 0  0.46 0.26 0  0.48 0.26 0  0.5 0.26 0  0.52 0.26 0  0.54 0.26 0  0.5600000000000001 0.26 0  0.58 0.26 0  0.6 0.26 0  0.62 0.26 0  0.64 0.26 0  0.66 0.26 0  0.68 0.26 0  0.7 0.26 0  0.72 0.26 0  0.74 0.26 0  0.76 0.26 0  0.78 0.26 0  0.8 0.26 0  0.82 0.26 0  0.84 0.26 0  0.86 0.26 0  0.88 0.26 0  0.9 0.26 0  0.92 0.26 0  0.9399999999999999 0.26 0  0.96 0.26 0  0.98 0.26 0  1 0.26 0  0 0.28 0  0.02 0.28 0  0.04 0.28 0  0.06 0.28 0  0.08 0.28 0  0.1 0.28 0  0.12 0.28 0  0.14 0.28 0  0.16 0.28 0  0.18 0.28 0  0.2 0.28 0  0.22 0.28 0  0.24 0.28 0  0.26 0.28 0  0.28 0.28 0  0.3 0.28 0  0.32 0.28 0  0.34 0.28 0  0.36 0.28 0  0.38 0.28 0  0.4 0.28 0  0.42 0.28 0  0.44 0.28 0  0.46 0.28 0  0.48 0.28 0  0.5 0.28 0  0.52 0.28 0  0.54 0.28 0  0.5600000000000001 0.28 0  0.58 0.28 0  0.6 0.28 0  0.62 0.28 0  0.64 0.28 0  0.66 0.28 0  0.68 0.28 0  0.7 0.28 0  0.72 0.28 0  0.74 0.28 0  0.76 0.28 0  0.78 0.28 0  0.8 0.28 0  0.82 0.28 0  0.84 0.28 0  0.86 0.28
[...]
<PointData  Scalars="f_816"> 
<DataArray  type="Float64"  Name="f_816"  format="ascii">3.4982014386899358e-08  3.3602438067996320e-03  5.4580337557105403e-03  7.2227852125790869e-03  8.7912589167093852e-03  1.0224817763711676e-02  1.1558306467649446e-02  1.2814191168360618e-02  1.4008158259720268e-02  1.5151732444993163e-02  1.6253663507212225e-02  1.7320729448635719e-02  1.8358234204090867e-02  1.9370333093382614e-02  2.0360255218744464e-02  2.1330461170341673e-02  2.2282758442612269e-02  2.3218388221134461e-02  2.4138092181585354e-02  2.5042164950208140e-02  2.5930496035715164e-02  2.6802603885397319e-02  2.7657663979937623e-02  2.8494532409534659e-02  2.9311766077964950e-02  3.0107640506706158e-02  3.0880166125597491e-02  3.1627103920969943e-02  3.2345981357377283e-02  3.3034109592496856e-02  3.3688603169594850e-02  3.4306403606405626e-02  3.4884308616838146e-02  3.5419009121665380e-02  3.5907136751642352e-02  3.6345325253595677e-02  3.6730290116157707e-02  3.7058931881790290e-02  3.7328470051137944e-02  3.7536616248818780e-02  3.7681797402751342e-02  3.7763441994329454e-02  3.7782344658800766e-02  3.7741125811299264e-02  3.7644801892498886e-02  3.7501474689922203e-02  3.7323127055213290e-02  3.7126457894350574e-02  3.6933545924527425e-02  3.6771700598416633e-02  3.6669711979775130e-02  -2.3689071958213890e-08  2.1903042373743243e-03  4.3218395418460429e-03  6.1765482276655301e-03  7.8292411811822261e-03  9.3357154650669759e-03  1.0732209286185289e-02  1.2043160950204508e-02  1.3285872012401216e-02  1.4473095205637467e-02  1.5614511730949358e-02  1.6717618509514434e-02  1.7788288271814577e-02  1.8831139188936554e-02  1.9849788480627344e-02  2.0847032429090005e-02  2.1824978010956130e-02  2.2785141692894029e-02  2.3728525297040805e-02  2.4655675442249780e-02  2.5566730959419869e-02  2.6461461343700178e-02  2.7339298447507463e-02  2.8199363063115216e-02  2.9040487688566805e-02  2.9861236552957370e-02  3.0659923858508072e-02  3.1434631154690001e-02  3.2183224781620987e-02  3.2903374401150209e-02  3.3592573775119663e-02  3.4248165156766944e-02  3.4867368942931680e-02  3.5447320605712929e-02  3.5985117400465769e-02  3.6477877953763511e-02  3.6922818592660715e-02  3.7317351204559368e-02  3.7659208521578218e-02  3.7946603978693906e-02  3.8178434605019886e-02  3.8354536533817742e-02  3.8476003141141121e-02  3.8545574491147067e-02  3.8568101609502956e-02  3.8551076168580063e-02  3.8505188138573586e-02  3.8444818625165439e-02  3.8388280980786268e-02  3.8357549117559057e-02  3.8377606557186646e-02  -8.8300470793642712e-11  1.7472682919536702e-03  3.6028715227747281e-03  5.3785158397719485e-03  7.0257476457029309e-03  8.5537672977262676e-03  9.9816706528732917e-03  1.1327182802724147e-02  1.2604835368657757e-02  1.3826221093731885e-02  1.5000564349885486e-02  1.6135228972584834e-02  1.7236109661656045e-02  1.8307923193835361e-02  1.9354424578886906e-02  2.0378569085214172e-02  2.1382635454540302e-02  2.2368321095727891e-02  2.3336816796505247e-02  2.4288866248392785e-02  2.5224814151948941e-02  2.6144645631983501e-02  2.7048018989314099e-02  2.7934293342121025e-02  2.8802552396772242e-02  2.9651625389953334e-02  3.0480106132026674e-02  3.1286371037807931e-02  3.2068597045243938e-02  3.2824780390412395e-02  3.3552757328946178e-02  3.4250228073213027e-02  3.4914785458342319e-02  3.5543950168110891e-02  3.6135214755303548e-02  3.6686099192337583e-02  3.7194221296010209e-02  3.7657386086240953e-02  3.8073698944915961e-02  3.8441708281876673e-02  3.8760584164525762e-02  3.9030339773415287e-02  3.9252102144661315e-02  3.9428436658151669e-02  3.9563724907819654e-02  3.9664586465701777e-02  3.9740321274499245e-02  3.9803337632646103e-02  3.9869554283638350e-02  3.9958926435990298e-02  4.0096747813164045e-02  -2.0718713267361332e-09  1.5306164381021388e-03  3.1663955702577544e-03  4.8067604615141474e-03  6.3898503069235255e-03  7.8954298986185882e-03  9.3236278699106116e-03  1.0681733792950517e-02  1.1978653496144163e-02  1.3222900900131462e-02  1.4421981347235472e-02  1.5582287004834869e-02  1.6709166341666342e-02  1.7807041151038594e-02  1.8879525569953787e-02  1.9929532402308794e-02  2.0959363604123423e-02  2.1970785853186493e-02  2.2965093306539990e-02  2.3943159761243955e-02  2.4905482193823426e-02  2.5852217339452369e-02  2.6783212684199240e-02  2.7698033013174059e-02  2.8595983488155837e-02  2.9476130115535203e-02  3.0337318402959303e-02  3.1178190985884407e-02  3.1997205030455701e-02  3.2792650286131236e-02  3.3562668771943673e-02  3.4305277237950807e-02  3.5018393753797575e-02  3.5699870046278809e-02  3.6347531544731852e-02  3.6959227503443014e-02  3.7532894056805891e-02  3.8066633620298378e-02  3.8558814657271824e-02  3.9008196439543938e-02  3.9414083946780983e-02  3.9776518321809895e-02  4.0096508103901057e-02  4.0376305556706273e-02  4.0619730756176968e-02  4.0832544604774444e-02  4.1022874352195524e-02  4.1201712302444411e-02  4.1383563480358841e-02  4.1587440976337597e-02  4.1838579469207840e-02  -2.0365569611821870e-09  1.3991147749124694e-03  2.8824582089010185e-03  4.3972871648669080e-03  5.8970679979803761e-03  7.3550872821182408e-03  8.7608215755662442e-03  1.0112989838568070e-02  1.1414659966679251e-02  1.2670570538210002e-02  1.3885816733237905e-02  1.5065251533920958e-02  1.6213238708482899e-02  1.7333572935853123e-02  1.8429476586975347e-02  1.9503629469553422e-02  2.0558210679167365e-02  2.1594942807665742e-02  2.2615134163093933e-02  2.3619717275923581e-02  2.4609283223210047e-02  2.5584111890521857e-02  2.6544198554822700e-02  2.7489277281603591e-02  2.8418841672902220e-02  2.9332163523392119e-02  3.0228309962268784e-02  3.1106159691629571e-02  3.1964418984960143e-02  3.2801638187738923e-02  3.3616229571018112e-02  3.4406487533317286e-02  3.5170612331917088e-02  3.5906738757727784e-02  3.6612971454391109e-02  3.7287428927341951e-02  3.7928298695106263e-02  3.8533906501566968e-02  3.9102803025643722e-02  3.9633872075715254e-02  4.0126464813869271e-02  4.0580565097888911e-02  4.0996991583137188e-02  4.1377642983397390e-02  4.1725794474608190e-02  4.2046457231671781e-02  4.2346822885149855e-02  4.2636835790297471e-02  4.2929972999699396e-02  4.3244353636948417e-02  4.3604284786268634e-02  -1.6813130923448382e-09  1.3081585525902546e-03  2.6829867840586466e-03  4.0954026368497038e-03  5.5141244464419759e-03  6.9156174701282148e-03  8.2861229743048052e-03  9.6195185698240825e-03  1.0914503692922614e-02  1.2172437705987412e-02  1.3395961031424116e-02  1.4588191755115200e-02  1.5752283280649926e-02  1.6891193273076963e-02  1.8007571953230963e-02  1.9103716283344278e-02  2.0181559699192581e-02  2.1242680354456443e-02  2.2288318380646429e-02  2.3319396914969724e-02  2.4336544047264264e-02  2.5340114198003326e-02  2.6330208217833117e-02  2.7306691950825725e-02  2.8269213273176816e-02  2.9217217789088149e-02  3.0149963484180059e-02  3.1066534732752372e-02  3.1965856146622722e-02  3.2846706852269404e-02  3.3707735898681625e-02  3.4547479638237358e-02  3.5364382094086218e-02  3.6156819536795351e-02  3.6923130747402728e-02  3.7661654750625211e-02  3.8370778168070829e-02  3.9048994774745494e-02  3.9694980352801987e-02  4.0307686540706697e-02  4.0886458107420566e-02  4.1431179014800187e-02  4.1942453932413158e-02  4.2421833880973668e-02  4.2872098058216769e-02  4.3297609726704052e-02  4.3704773655191709e-02  4.4102636356958574e-02  4.4503683868061319e-02  4.4924888099096588e-02  4.5388997699464403e-02  -1.3537440972040985e-09  1.2400506395220995e-03  2.5339868158525606e-03  3.8648806532221541e-03  5.2121435494644113e-03  6.5575027579081804e-03  7.8878142046168945e-03  9.1951520185727543e-03  1.0475667441546521e-02  1.1728266453267411e-02  1.2953532538528529e-02  1.4152968492673633e-02  1.5328502819585133e-02  1.6482183985842631e-02  1.7615998598187958e-02  1.8731768159233841e-02  1.9831094456644983e-02  2.0915334496520502e-02  2.1985593030513194e-02  2.3042725269759742e-02  2.4087345228654494e-02  2.5119836921633529e-02  2.6140366751210380e-02  2.7148896130528375e-02  2.8145193837395770e-02  2.9128847897789079e-02  3.0099277006884497e-02  3.1055741654021182e-02  3.1997355250263371e-02  3.2923095680889719e-02  3.3831817832957606e-02  3.4722267790192517e-02  3.5593099552717604e-02  3.6442895336188823e-02  3.7270190742813264e-02  3.8073506385963088e-02  3.8851387903569852e-02  3.9602456730666258e-02  4.0325474543898135e-02  4.1019424980921947e-02  4.1683617141925998e-02  4.2317816610708887e-02  4.2922411471861162e-02  4.3498623329052140e-02  4.4048777016468685e-02  4.4576647859528910e-02  4.5087911771733352e-02  4.5590729309732195e-02  4.6096494711779054e-02  4.6620764541815400e-02  4.7184338028678260e-02  -1.0913642939196846e-09  1.1863319553909041e-03  2.4174586139306484e-03  3.6830797956717218e-03  4.9695613638859040e-03  6.2633731260989863e-03  7.5533740051897157e-03  8.8316199756250571e-03  1.0093165240281466e-02  1.1335431711333780e-02  1.2557518856932697e-02  1.3759618017527460e-02  1.4942571358520338e-02  1.6107561773692141e-02  1.7255904550065683e-02  1.8388912331391997e-02  1.9507810649257950e-02  2.0613687401779348e-02  2.1707464672808364e-02  2.2789884991213975e-02  2.3861506735591537e-02  2.4922705175553585e-02  2.5973676850921119e-02  2.7014445809034011e-02  2.8044870778560351e-02  2.9064652745240810e-02  3.0073342671730955e-02  3.1070349311379301e-02  3.2054947232855319e-02  3.3026285319159451e-02  3.3983396145752055e-02  3.4925206790364781e-02  3.5850551792106236e-02  3.6758189170122822e-02  3.7646820643631770e-02  3.8515117479115256e-02  3.9361753744223058e-02  4.0185449195231975e-02  4.0985024599507106e-02  4.1759473045303960e-02  4.2508051789570490e-02  4.3230400540169411e-02  4.3926693891877241e-02  4.4597838074556188e-02  4.5245725299285416e-02  4.5873562620424448e-02  4.6486295560796767e-02  4.7091147818408279e-02  4.7698293792315938e-02  4.8321666412641177e-02  4.8979879580443579e-02  -8.8707055037166009e-10  1.1424083061656158e-03  2.3231555486043719e-03  3.5357694247183024e-03  4.7710990315694519e-03  6.0192932349169342e-03  7.2714174443403931e-03  8.5203368793697731e-03  9.7609353535316190e-03  1.0989923016812831e-02  1.2205470386532599e-02  1.3406819494669681e-02  1.4593944004117367e-02  1.5767280526628027e-02  1.6927528828722008e-02  1.8075509364860184e-02  1.9212064961485469e-02  2.0337994977050137e-02  2.1454012639120501e-02  2.2560718557053799e-02  2.3658585309975985e-02  2.4747949473355381e-02  2.5829008532717239e-02  2.6901820923033962e-02  2.7966308004150453e-02  2.9022257198777959e-02  3.0069325827801353e-02  3.1107045413363885e-02  3.2134826409659568e-02  3.3151963484328466e-02  3.4157641625199076e-02  3.5150943500675082e-02  3.6130858668851372e-02  3.7096295422044699e-02  3.8046096282565882e-02  3.8979058447481896e-02  3.9893960834210200e-02  4.0789599830555141e-02  4.1664836436294608e-02  4.2518658243633566e-02  4.3350260697779829e-02  4.4159153372280824e-02  4.4945298646599387e-02  4.5709292202618948e-02  4.6452597058775622e-02  4.7177845080253591e-02  4.7889221270059144e-02  4.8592945393530637e-02  4.9297861178070966e-02  5.0016134847185478e-02  5.0764055418387195e-02  -7.2625221515461328e-10  1.1055477700475814e-03  2.2448523704761553e-03  3.4137630013490131e-03  4.6060538670598316e-03  5.8145805444345874e-03  7.0323690463172175e-03  8.2533634298345687e-03  9.4727765925927548e-03  1.0687130401099374e-02  1.1894111662772754e-02  1.3092350154035601e-02  1.4281186660500165e-02  1.5460465679452929e-02  1.6630365482039701e-02  1.7791266247584349e-02  1.8943651614282908e-02  2.0088037339840562e-02  2.1224920919282055e-02  2.2354746878922169e-02  2.3477883507622838e-02  2.4594607757656348e-02  2.5705095864215929e-02  2.6809417884893886e-02  2.7907534868059945e-02  2.8999297750493480e-02  3.0084447387946273e-02  3.1162615361972984e-02  3.2233325402673756e-02  3.3295995436554135e-02  3.4349940425477954e-02  3.5394376318881732e-02  3.6428425608542744e-02  3.7451125164976257e-02  3.8461437260015184e-02  3.9458264956555050e-02  4.0440473392668257e-02  4.1406918926673260e-02  4.2356488671115695e-02  4.3288153660979697e-02  4.4201039811041218e-02  4.5094521949378692e-02  4.5968347575037073e-02  4.6822798527647140e-02  4.7658900319697682e-02  4.8478690151640184e-02  4.9285555110148732e-02  5.0084651177973720e-02  5.0883411212770617e-02  5.1692146634959586e-02  5.2524746188766923e-02  -5.9603999071387951e-10  1.0740150867628610e-03  2.1785581914252629e-03  3.3109414038066348e-03  4.4668810777843621e-03  5.6411876022118869e-03  6.8284872613424879e-03  8.0237974511244894e-03  9.2228789181726285e-03  1.0422377334230432e-02  1.1619811363906492e-02  1.2813471319689389e-02  1.4002279596345604e-02  1.5185646179990237e-02  1.6363337233999315e-02  1.7535364251810841e-02  1.8701895067607915e-02  1.9863184878383653e-02  2.1019524176828546e-02  2.2171200271583220e-02  2.3318469343629137e-02  2.4461536450201382e-02  2.5600541383202773e-02  2.6735548746041001e-02  2.7866541005733637e-02  2.8993413603747149e-02  3.0115971477368792e-02  3.1233926565221237e-02  3.2346896058239899e-02  3.3454401322927915e-02  3.4555867578061623e-02  3.5650624559762610e-02  3.6737908573420235e-02  3.7816866515248404e-02  3.8886562663389634e-02  3.9945989302304884e-02  4.0994082570974331e-02  4.2029745334088764e-02  4.3051879387035891e-02  4.4059429941547018e-02  4.5051446116760409e-02  4.6027162084992232e-02  4.6986104571001185e-02  4.7928233510669910e-02  4.8854123708137735e-02  4.9765196091516903e-02  5.0664007439883238e-02  5.1554607145939645e-02  5.2442968982754065e-02  5.3337505849416059e-02  5.4249678126315481e-02  -4.8685198181255389e-10  1.0466536659780685e-03  2.1216026101104537e-03  3.2231058103230699e-03  4.3481905795562849e-03  5.4930724813532106e-03  6.6536328454442880e-03  7.8258426741173726e-03  9.0060674142454084e-03  1.0191237783574180e-02  1.1378906386399563e-02  1.2567224142597299e-02  1.3754870205582588e-02  1.4940961667050915e-02  1.6124960492656625e-02  1.7306587604208265e-02  1.8485748657690013e-02  1.9662472700942679e-02  2.0836863029372186e-02  2.2009058683979336e-02  2.3179204756003265e-02  2.4347429705264850e-02  2.5513828095953067e-02  2.6678447406854766e-02  2.7841277831620413e-02  2.9002244224890301e-02  3.0161199563967199e-02  3.1317919483576886e-02  3.2472097607738712e-02  3.3623341554492293e-02  3.4771169633744464e-02  3.5915008403892806e-02  3.7054191407750153e-02  3.8187959581921692e-02  3.9315464036429430e-02  4.0435772144488111e-02  4.1547878178603996e-02  4.2650720092171995e-02  4.3743204488886855e-02  4.4824242356402262e-02  4.5892798770123165e-02  4.6947960489508167e-02  4.7989026144431582e-02  4.9015624488496737e-02  5.0027866901330376e-02  5.1026540874069368e-02  5.2013351593644883e-02  5.2991219104645895e-02  5.3964639328145478e-02  5.4940119221186905e-02  5.5926700814205074e-02  -3.9199773235941814e-10  1.0226655342022290e-03  2.0721386785186413e-03  3.1473001348580770e-03  4.2460731110724858e-03  5.3656835295963091e-03  6.5029771111565762e-03  7.6547254065354340e-03  8.8178719286656892e-03  9.9896970423194020e-03  1.1167903455190583e-02  1.2350637722202370e-02  1.3536467643103175e-02  1.4724333960942389e-02  1.5913490611103854e-02  1.7103443163691015e-02  1.8293891177344153e-02  1.9484677296507137e-02  2.0675744021825218e-02  2.1867097952789415e-02  2.3058780711805262e-02  2.4250845516642375e-02  2.5443338332749182e-02  2.6636282613846190e-02  2.7829666769682876e-02  2.9023433649750373e-02  3.0217471483111640e-02  3.1411605859499321e-02  3.2605592473678738e-02  3.3799110485657508e-02  3.4991756477651716e-02  3.6183039120166127e-02  3.7372374800472348e-02  3.8559084624331268e-02  3.9742393383941137e-02  4.0921431300372089e-02  4.2095239606072359e-02  4.3262781341025423e-02  4.4422959101863543e-02  4.5574641910314448e-02  4.6716703853261481e-02  4.7848077679873514e-02  4.8967827099511738e-02  5.0075242077380046e-02  5.1169961947990991e-02  5.2252131668807732e-02  5.3322597112977196e-02  5.4383146198078582e-02  5.5436804313614654e-02  5.6488195519816882e-02  5.7543986053612481e-02  -3.0700920315201077e-10  1.0014870802141375e-03  2.0288572412494651e-03  3.0813993825398898e-03  4.1576528044668676e-03  5.2555705009149937e-03  6.3727307582335203e-03  7.5065558525842851e-03  8.6545035957974088e-03  9.8142117805445975e-03  1.0983590039054705e-02  1.2160864119695481e-02  1.3344583013180587e-02  1.4533600634826992e-02  1.5727042497968177e-02  1.6924265443786557e-02  1.8124815988878006e-02  1.9328390707815297e-02  2.0534800448976882e-02  2.1743939070810861e-02  2.2955756688627867e-02  2.4170237029198731e-02  2.5387378304832234e-02  2.6607176965132057e-02  2.7829613710011528e-02  2.9054641216498631e-02  3.0282173122544075e-02  3.1512073911083127e-02  3.2744149441005670e-02  3.3978137976702530e-02  3.5213701675473975e-02  3.6450418605120875e-02  3.7687775486558002e-02  3.8925161493190724e-02  4.0161863595591499e-02  4.1397064122391046e-02  4.2629841421802830e-02  4.3859174757388042e-02  4.5083954859273252e-02  4.6303001877656000e-02  4.7515092844528165e-02  4.8719001133186765e-02  4.9913550802328781e-02  5.1097689116636778e-02  5.2270580963880243e-02  5.3431729401860313e-02  5.4581127311539523e-02  5.5719446365622850e-02  5.6848271622988285e-02  5.7970393446801473e-02  5.9090173503625061e-02  -2.2906749771087094e-10  9.8271462218196218e-04  1.9908144578331855e-03  3.0238515649220637e-03  4.0807883344976242e-03  5.1601003846221526e-03  6.2599181434509887e-03  7.3781821898896722e-03  8.5127890513832256e-03  9.6617112476410083e-03  1.0823083963380980e-02  1.1995258081906636e-02  1.3176824114111809e-02  1.4366613766772326e-02  1.5563686147495892e-02  1.6767304706492001e-02  1.7976909640317420e-02  1.9192089072119670e-02  2.0412551107316233e-02  2.1638097925037850e-02  2.2868602400157860e-02  2.4103987315150517e-02  2.5344206961358581e-02  2.6589230795178397e-02  2.7839028765379449e-02  2.9093557932916816e-02  3.0352750043156223e-02  3.1616499768811444e-02  3.2884653412067331e-02  3.4156997932298226e-02  3.5433250250269756e-02  3.6713046871435742e-02  3.7995933971906010e-02  3.9281358203691490e-02  4.0568658604151341e-02  4.1857060141415832e-02  4.3145669595701604e-02  4.4433474667610107e-02  4.5719347418866130e-02  4.7002053386616192e-02  4.8280267965714718e-02  4.9552601920535844e-02  5.0817638169063935e-02  5.2073982290443084e-02  5.3320329582829930e-02  5.4555552028171334e-02  5.5778809359429304e-02  5.6989689810012047e-02  5.8188388356899184e-02  5.9375933656092623e-02  6.0554479610722481e-02  -1.5657126877961573e-10  9.6605744590563532e-04  1.9573229062232688e-03  2.9735106204831006e-03  4.0138703974954022e-03  5.0772517772000800e-03  6.1621984632309517e-03  7.2670579860011032e-03  8.3900909874973107e-03  9.5295677821412832e-03  1.0683844748941962e-02  1.1851417957613337e-02  1.3030955158798586e-02  1.4221309515260603e-02  1.5421519361816025e-02  1.6630798237497860e-02  1.7848518842575021e-02  1.9074193762473650e-02  2.0307454984202611e-02  2.1548033522555587e-02  2.2795739916077303e-02  2.4050445947038347e-02  2.5312067665085619e-02  2.6580549623493141e-02  2.7855850143386870e-02  2.9137927382445868e-02  3.0426725983087453e-02  3.1722164098579086e-02  3.3024120635642681e-02  3.4332422603908369e-02  3.5646832523466669e-02  3.6967035910937855e-02  3.8292628942282331e-02  3.9623106478078061e-02  4.0957850735567056e-02  4.2296121002658234e-02  4.3637044913091637e-02  4.4979611939039925e-02  4.6322669906556285e-02  4.7664925498638863e-02  4.9004949878824151e-02  5.0341190746503388e-02  5.1671992332729927e-02  5.2995625087084081e-02  5.4310327144198013e-02  5.5614360185458740e-02  5.6906083172098609e-02  5.8184048819890241e-02  5.9447129848661504e-02  6.0694685207545368e-02  6.1926780741629710e-02  -8.8816884644162463e-11  9.5130674470665600e-04  1.9278799388305382e-03  2.9295247790699368e-03  3.9556818834836699e-03  5.0054658317648208e-03  6.0777272723479530e-03  7.1711295806600392e-03  8.2842296908011009e-03  9.4155540121421966e-03  1.0563663011016541e-02  1.1727201095573035e-02  1.2904931127376956e-02  1