<?xml version="1.0"?>
<VTKFile type="UnstructuredGrid"  version="0.1"  >
<UnstructuredGrid>
<Piece  NumberOfPoints="2601" NumberOfCells="5000">
<Points>
<DataArray  type="Float64"  NumberOfComponents="3"  format="ascii">0 0 0  0.02 0 0  0.04 0 0  0.06 0 0  0.08 0 0  0.1 0 0  0.12 0 0  0.14 0 0  0.16 0 0  0.18 0 0  0.2 0 0  0.22 0 0  0.24 0 0  0.26 0 0  0.28 0 0  0.3 0 0  0.32 0 0  0.34 0 0  0.36 0 0  0.38 0 0  0.4 0 0  0.42 0 0  0.44 0 0  0.46 0 0  0.48 0 0  0.5 0 0  0.52 0 0  0.54 0 0  0.5600000000000001 0 0  0.58 0 0  0.6 0 0  0.62 0 0  0.64 0 0  0.66 0 0  0.68 0 0  0.7 0 0  0.72 0 0  0.74 0 0  0.76 0 0  0.78 0 0  0.8 0 0  0.82 0 0  0.84 0 0  0.86 0 0  0.88 0 0  0.9 0 0  0.92 0 0  0.9399999999999999 0 0  0.96 0 0  0.98 0 0  1 0 0  0 0.02 0  0.02 0.02 0  0.04 0.02 0  0.06 0.02 0  0.08 0.02 0  0.1 0.02 0  0.12 0.02 0  0.14 0.02 0  0.16 0.02 0  0.18 0.02 0  0.2 0.02 0  0.22 0.02 0  0.24 0.02 0  0.26 0.02 0  0.28 0.02 0  0.3 0.02 0  0.32 0.02 0  0.34 0.02 0  0.36 0.02 0  0.38 0.02 0  0.4 0.02 0  0.42 0.02 0  0.44 0.02 0  0.46 0.02 0  0.48 0.02 0  0.5 0.02 0  0.52 0.02 0  0.54 0.02 0  0.5600000000000001 0.02 0  0.58 0.02 0  0.6 0.02 0  0.62 0.02 0  0.64 0.02 0  0.66 0.02 0  0.68 0.02 0  0.7 0.02 0  0.72 0.02 0  0.74 0.02 0  0.76 0.02 0  0.78 0.02 0  0.8 0.02 0  0.82 0.02 0  0.84 0.02 0  0.86 0.02 0  0.88 0.02 0  0.9 0.02 0  0.92 0.02 0  0.9399999999999999 0.02 0  0.96 0.02 0  0.98 0.02 0  1 0.02 0  0 0.04 0  0.02 0.04 0  0.04 0.04 0  0.06 0.04 0  0.08 0.04 0  0.1 0.04 0  0.12 0.04 0  0.14 0.04 0  0.16 0.04 0  0.18 0.04 0  0.2 0.04 0  0.22 0.04 0  0.24 0.04 0  0.26 0.04 0  0.28 0.04 0  0.3 0.04 0  0.32 0.04 0  0.34 0.04 0  0.36 0.04 0  0.38 0.04 0  0.4 0.04 0  0.42 0.04 0  0.44 0.04 0  0.46 0.04 0  0.48 0.04 0  0.5 0.04 0  0.52 0.04 0  0.54 0.04 0  0.5600000000000001 0.04 0  0.58 0.04 0  0.6 0.04 0  0.62 0.04 0  0.64 0.04 0  0.66 0.04 0  0.68 0.04 0  0.7 0.04 0  0.72 0.04 0  0.74 0.04 0  0.76 0.04 0  0.78 0.04 0  0.8 0.04 0  0.82 0.04 0  0.84 0.04 0  0.86 0.04 0  0.88 0.04 0  0.9 0.04 0  0.92 0.04 0  0.9399999999999999 0.04 0  0.96 0.04 0  0.98 0.04 0  1 0.04 0  0 0.06 0  0.02 0.06 0  0.04 0.06 0  0.06 0.06 0  0.08 0.06 0  0.1 0.06 0  0.12 0.06 0  0.14 0.06 0  0.16 0.06 0  0.18 0.06 0  0.2 0.06 0  0.22 0.06 0  0.24 0.06 0  0.26 0.06 0  0.28 0.06 0  0.3 0.06 0  0.32 0.06 0  0.34 0.06 0  0.36 0.06 0  0.38 0.06 0  0.4 0.06 0  0.42 0.06 0  0.44 0.06 0  0.46 0.06 0  0.48 0.06 0  0.5 0.06 0  0.52 0.06 0  0.54 0.06 0  0.5600000000000001 0.06 0  0.58 0.06 0  0.6 0.06 0  0.62 0.06 0  0.64 0.06 0  0.66 0.06 0  0.68 0.06 0  0.7 0.06 0  0.72 0.06 0  0.74 0.06 0  0.76 0.06 0  0.78 0.06 0  0.8 0.06 0  0.82 0.06 0  0.84 0.06 0  0.86 0.06 0  0.88 0.06 0  0.9 0.06 0  0.92 0.06 0  0.9399999999999999 0.06 0  0.96 0.06 0  0.98 0.06 0  1 0.06 0  0 0.08 0  0.02 0.08 0  0.04 0.08 0  0.06 0.08 0  0.08 0.08 0  0.1 0.08 0  0.12 0.08 0  0.14 0.08 0  0.16 0.08 0  0.18 0.08 0  0.2 0.08 0  0.22 0.08 0  0.24 0.08 0  0.26 0.08 0  0.28 0.08 0  0.3 0.08 0  0.32 0.08 0  0.34 0.08 0  0.36 0.08 0  0.38 0.08 0  0.4 0.08 0  0.42 0.08 0  0.44 0.08 0  0.46 0.08 0  0.48 0.08 0  0.5 0.08 0  0.52 0.08 0  0.54 0.08 0  0.5600000000000001 0.08 0  0.58 0.08 0  0.6 0.08 0  0.62 0.08 0  0.64 0.08 0  0.66 0.08 0  0.68 0.08 0  0.7 0.08 0  0.72 0.08 0  0.74 0.08 0  0.76 0.08 0  0.78 0.08 0  0.8 0.08 0  0.82 0.08 0  0.84 0.08 0  0.86 0.08 0  0.88 0.08 0  0.9 0.08 0  0.92 0.08 0  0.9399999999999999 0.08 0  0.96 0.08 0  0.98 0.08 0  1 0.08 0  0 0.1 0  0.02 0.1 0  0.04 0.1 0  0.06 0.1 0  0.08 0.1 0  0.1 0.1 0  0.12 0.1 0  0.14 0.1 0  0.16 0.1 0  0.18 0.1 0  0.2 0.1 0  0.22 0.1 0  0.24 0.1 0  0.26 0.1 0  0.28 0.1 0  0.3 0.1 0  0.32 0.1 0  0.34 0.1 0  0.36 0.1 0  0.38 0.1 0  0.4 0.1 0  0.42 0.1 0  0.44 0.1 0  0.46 0.1 0  0.48 0.1 0  0.5 0.1 0  0.52 0.1 0  0.54 0.1 0  0.5600000000000001 0.1 0  0.58 0.1 0  0.6 0.1 0  0.62 0.1 0  0.64 0.1 0  0.66 0.1 0  0.68 0.1 0  0.7 0.1 0  0.72 0.1 0  0.74 0.1 0  0.76 0.1 0  0.78 0.1 0  0.8 0.1 0  0.82 0.1 0  0.84 0.1 0  0.86 0.1 0  0.88 0.1 0  0.9 0.1 0  0.92 0.1 0  0.9399999999999999 0.1 0  0.96 0.1 0  0.98 0.1 0  1 0.1 0  0 0.12 0  0.02 0.12 0  0.04 0.12 0  0.06 0.12 0  0.08 0.12 0  0.1 0.12 0  0.12 0.12 0  0.14 0.12 0  0.16 0.12 0  0.18 0.12 0  0.2 0.12 0  0.22 0.12 0  0.24 0.12 0  0.26 0.12 0  0.28 0.12 0  0.3 0.12 0  0.32 0.12 0  0.34 0.12 0  0.36 0.12 0  0.38 0.12 0  0.4 0.12 0  0.42 0.12 0  0.44 0.12 0  0.46 0.12 0  0.48 0.12 0  0.5 0.12 0  0.52 0.12 0  0.54 0.12 0  0.5600000000000001 0.12 0  0.58 0.12 0  0.6 0.12 0  0.62 0.12 0  0.64 0.12 0  0.66 0.12 0  0.68 0.12 0  0.7 0.12 0  0.72 0.12 0  0.74 0.12 0  0.76 0.12 0  0.78 0.12 0  0.8 0.12 0  0.82 0.12 0  0.84 0.12 0  0.86 0.12 0  0.88 0.12 0  0.9 0.12 0  0.92 0.12 0  0.9399999999999999 0.12 0  0.96 0.12 0  0.98 0.12 0  1 0.12 0  0 0.14 0  0.02 0.14 0  0.04 0.14 0  0.06 0.14 0  0.08 0.14 0  0.1 0.14 0  0.12 0.14 0  0.14 0.14 0  0.16 0.14 0  0.18 0.14 0  0.2 0.14 0  0.22 0.14 0  0.24 0.14 0  0.26 0.14 0  0.28 0.14 0  0.3 0.14 0  0.32 0.14 0  0.34 0.14 0  0.36 0.14 0  0.38 0.14 0  0.4 0.14 0  0.42 0.14 0  0.44 0.14 0  0.46 0.14 0  0.48 0.14 0  0.5 0.14 0  0.52 0.14 0  0.54 0.14 0  0.5600000000000001 0.14 0  0.58 0.14 0  0.6 0.14 0  0.62 0.14 0  0.64 0.14 0  0.66 0.14 0  0.68 0.14 0  0.7 0.14 0  0.72 0.14 0  0.74 0.14 0  0.76 0.14 0  0.78 0.14 0  0.8 0.14 0  0.82 0.14 0  0.84 0.14 0  0.86 0.14 0  0.88 0.14 0  0.9 0.14 0  0.92 0.14 0  0.9399999999999999 0.14 0  0.96 0.14 0  0.98 0.14 0  1 0.14 0  0 0.16 0  0.02 0.16 0  0.04 0.16 0  0.06 0.16 0  0.08 0.16 0  0.1 0.16 0  0.12 0.16 0  0.14 0.16 0  0.16 0.16 0  0.18 0.16 0  0.2 0.16 0  0.22 0.16 0  0.24 0.16 0  0.26 0.16 0  0.28 0.16 0  0.3 0.16 0  0.32 0.16 0  0.34 0.16 0  0.36 0.16 0  0.38 0.16 0  0.4 0.16 0  0.42 0.16 0  0.44 0.16 0  0.46 0.16 0  0.48 0.16 0  0.5 0.16 0  0.52 0.16 0  0.54 0.16 0  0.5600000000000001 0.16 0  0.58 0.16 0  0.6 0.16 0  0.62 0.16 0  0.64 0.16 0  0.66 0.16 0  0.68 0.16 0  0.7 0.16 0  0.72 0.16 0  0.74 0.16 0  0.76 0.16 0  0.78 0.16 0  0.8 0.16 0  0.82 0.16 0  0.84 0.16 0  0.86 0.16 0  0.88 0.16 0  0.9 0.16 0  0.92 0.16 0  0.9399999999999999 0.16 0  0.96 0.16 0  0.98 0.16 0  1 0.16 0  0 0.18 0  0.02 0.18 0  0.04 0.18 0  0.06 0.18 0  0.08 0.18 0  0.1 0.18 0  0.12 0.18 0  0.14 0.18 0  0.16 0.18 0  0.18 0.18 0  0.2 0.18 0  0.22 0.18 0  0.24 0.18 0  0.26 0.18 0  0.28 0.18 0  0.3 0.18 0  0.32 0.18 0  0.34 0.18 0  0.36 0.18 0  0.38 0.18 0  0.4 0.18 0  0.42 0.18 0  0.44 0.18 0  0.46 0.18 0  0.48 0.18 0  0.5 0.18 0  0.52 0.18 0  0.54 0.18 0  0.5600000000000001 0.18 0  0.58 0.18 0  0.6 0.18 0  0.62 0.18 0  0.64 0.18 0  0.66 0.18 0  0.68 0.18 0  0.7 0.18 0  0.72 0.18 0  0.74 0.18 0  0.76 0.18 0  0.78 0.18 0  0.8 0.18 0  0.82 0.18 0  0.84 0.18 0  0.86 0.18 0  0.88 0.18 0  0.9 0.18 0  0.92 0.18 0  0.9399999999999999 0.18 0  0.96 0.18 0  0.98 0.18 0  1 0.18 0  0 0.2 0  0.02 0.2 0  0.04 0.2 0  0.06 0.2 0  0.08 0.2 0  0.1 0.2 0  0.12 0.2 0  0.14 0.2 0  0.16 0.2 0  0.18 0.2 0  0.2 0.2 0  0.22 0.2 0  0.24 0.2 0  0.26 0.2 0  0.28 0.2 0  0.3 0.2 0  0.32 0.2 0  0.34 0.2 0  0.36 0.2 0  0.38 0.2 0  0.4 0.2 0  0.42 0.2 0  0.44 0.2 0  0.46 0.2 0  0.48 0.2 0  0.5 0.2 0  0.52 0.2 0  0.54 0.2 0  0.5600000000000001 0.2 0  0.58 0.2 0  0.6 0.2 0  0.62 0.2 0  0.64 0.2 0  0.66 0.2 0  0.68 0.2 0  0.7 0.2 0  0.72 0.2 0  0.74 0.2 0  0.76 0.2 0  0.78 0.2 0  0.8 0.2 0  0.82 0.2 0  0.84 0.2 0  0.86 0.2 0  0.88 0.2 0  0.9 0.2 0  0.92 0.2 0  0.9399999999999999 0.2 0  0.96 0.2 0  0.98 0.2 0  1 0.2 0  0 0.22 0  0.02 0.22 0  0.04 0.22 0  0.06 0.22 0  0.08 0.22 0  0.1 0.22 0  0.12 0.22 0  0.14 0.22 0  0.16 0.22 0  0.18 0.22 0  0.2 0.22 0  0.22 0.22 0  0.24 0.22 0  0.26 0.22 0  0.28 0.22 0  0.3 0.22 0  0.32 0.22 0  0.34 0.22 0  0.36 0.22 0  0.38 0.22 0  0.4 0.22 0  0.42 0.22 0  0.44 0.22 0  0.46 0.22 0  0.48 0.22 0  0.5 0.22 0  0.52 0.22 0  0.54 0.22 0  0.5600000000000001 0.22 0  0.58 0.22 0  0.6 0.22 0  0.62 0.22 0  0.64 0.22 0  0.66 0.22 0  0.68 0.22 0  0.7 0.22 0  0.72 0.22 0  0.74 0.22 0  0.76 0.22 0  0.78 0.22 0  0.8 0.22 0  0.82 0.22 0  0.84 0.22 0  0.86 0.22 0  0.88 0.22 0  0.9 0.22 0  0.92 0.22 0  0.9399999999999999 0.22 0  0.96 0.22 0  0.98 0.22 0  1 0.22 0  0 0.24 0  0.02 0.24 0  0.04 0.24 0  0.06 0.24 0  0.08 0.24 0  0.1 0.24 0  0.12 0.24 0  0.14 0.24 0  0.16 0.24 0  0.18 0.24 0  0.2 0.24 0  0.22 0.24 0  0.24 0.24 0  0.26 0.24 0  0.28 0.24 0  0.3 0.24 0  0.32 0.24 0  0.34 0.24 0  0.36 0.24 0  0.38 0.24 0  0.4 0.24 0  0.42 0.24 0  0.44 0.24 0  0.46 0.24 0  0.48 0.24 0  0.5 0.24 0  0.52 0.24 0  0.54 0.24 0  0.5600000000000001 0.24 0  0.58 0.24 0  0.6 0.24 0  0.62 0.24 0  0.64 0.24 0  0.66 0.24 0  0.68 0.24 0  0.7 0.24 0  0.72 0.24 0  0.74 0.24 0  0.76 0.24 0  0.78 0.24 0  0.8 0.24 0  0.82 0.24 0  0.84 0.24 0  0.86 0.24 0  0.88 0.24 0  0.9 0.24 0  0.92 0.24 0  0.9399999999999999 0.24 0  0.96 0.24 0  0.98 0.24 0  1 0.24 0  0 0.26 0  0.02 0.26 0  0.04 0.26 0  0.06 0.26 0  0.08 0.26 0  0.1 0.26 0  0.12 0.26 0  0.14 0.26 0  0.16 0.26 0  0.18 0.26 0  0.2 0.26 0  0.22 0.26 0  0.24 0.26 0  0.26 0.26 0  0.28 0.26 0  0.3 0.26 0  0.32 0.26 0  0.34 0.26 0  0.36 0.26 0  0.38 0.26 0  0.4 0.26 0  0.42 0.26 0  0.44 0.26 0  0.46 0.26 0  0.48 0.26 0  0.5 0.26 0  0.52 0.26 0  0.54 0.26 0  0.5600000000000001 0.26 0  0.58 0.26 0  0.6 0.26 0  0.62 0.26 0  0.64 0.26 0  0.66 0.26 0  0.68 0.26 0  0.7 0.26 0  0.72 0.26 0  0.74 0.26 0  0.76 0.26 0  0.78 0.26 0  0.8 0.26 0  0.82 0.26 0  0.84 0.26 0  0.86 0.26 0  0.88 0.26 0  0.9 0.26 0  0.92 0.26 0  0.9399999999999999 0.26 0  0.96 0.26 0  0.98 0.26 0  1 0.26 0  0 0.28 0  0.02 0.28 0  0.04 0.28 0  0.06 0.28 0  0.08 0.28 0  0.1 0.28 0  0.12 0.28 0  0.14 0.28 0  0.16 0.28 0  0.18 0.28 0  0.2 0.28 0  0.22 0.28 0  0.24 0.28 0  0.26 0.28 0  0.28 0.28 0  0.3 0.28 0  0.32 0.28 0  0.34 0.28 0  0.36 0.28 0  0.38 0.28 0  0.4 0.28 0  0.42 0.28 0  0.44 0.28 0  0.46 0.28 0  0.48 0.28 0  0.5 0.28 0  0.52 0.28 0  0.54 0.28 0  0.5600000000000001 0.28 0  0.58 0.28 0  0.6 0.28 0  0.62 0.28 0  0.64 0.28 0  0.66 0.28 0  0.68 0.28 0  0.7 0.28 0  0.72 0.28 0  0.74 0.28 0  0.76 0.28 0  0.78 0.28 0  0.8 0.28 0  0.82 0.28 0  0.84 0.28 0  0.86 0.28
[...]
<PointData  Scalars="f_128"> 
<DataArray  type="Float64"  Name="f_128"  format="ascii">1.0518076948176720e+03  6.1692540638554738e+02  5.0420385191025679e+02  4.5237075383419125e+02  4.1906446242392394e+02  3.9505767597742744e+02  3.7650698727567226e+02  3.6154324525824546e+02  3.4912536961592951e+02  3.3861430239649991e+02  3.2959060816248370e+02  3.2176443191526977e+02  3.1492709728339059e+02  3.0892328184232781e+02  3.0363414920820497e+02  2.9896666963036091e+02  2.9484660706682178e+02  2.9121376628661920e+02  2.8801868012219757e+02  2.8522024061226756e+02  2.8278396376338725e+02  2.8068068838227464e+02  2.7888557739054193e+02  2.7737733287280463e+02  2.7613756374435224e+02  2.7515026311842780e+02  2.7440136464254556e+02  2.7387835535021145e+02  2.7356992826914734e+02  2.7346566195772175e+02  2.7355571685589626e+02  2.7383054017848235e+02  2.7428057226630801e+02  2.7489594798451805e+02  2.7566618698898895e+02  2.7657986651361267e+02  2.7762426976739994e+02  2.7878500212019247e+02  2.8004556608248618e+02  2.8138688505854117e+02  2.8278676612059752e+02  2.8421929700630136e+02  2.8565419116066391e+02  2.8705616900753728e+02  2.8838466999798192e+02  2.8959406354142396e+02  2.9064423282232002e+02  2.9143664361716844e+02  2.9186224699123846e+02  3.0606268534230207e+02  1.9338386796249469e+02  3.7349680596193997e+02  4.8750704528758996e+02  4.6038115731521009e+02  4.3289738274382506e+02  4.0593022975738342e+02  3.8497819591633515e+02  3.6814841440972293e+02  3.5432565845601169e+02  3.4274671266716399e+02  3.3289652115691047e+02  3.2441759437974076e+02  3.1705384624720085e+02  3.1061633226229515e+02  3.0496190579930260e+02  2.9997956282419477e+02  2.9558145655362034e+02  2.9169682269490158e+02  2.8826776551111271e+02  2.8524626197144318e+02  2.8259198032014280e+02  2.8027065335564214e+02  2.7825283549196001e+02  2.7651292862564560e+02  2.7502839776149750e+02  2.7377912076803773e+02  2.7274683201613982e+02  2.7191462973320665e+02  2.7126652333595422e+02  2.7078700077293280e+02  2.7046059755413785e+02  2.7027144884871831e+02  2.7020280366051264e+02  2.7023647512252472e+02  2.7035219232776018e+02  2.7052680490817630e+02  2.7073326834263020e+02  2.7093929950412263e+02  2.7110552675364801e+02  2.7118284489960837e+02  2.7110847859040786e+02  2.7079986622555845e+02  2.7014469730985547e+02  2.6898379371544939e+02  2.6707981852155109e+02  2.6405570430297234e+02  2.5926291527767211e+02  2.5146792588168813e+02  2.3800571783823256e+02  2.1251254793485634e+02  1.5929488289548712e+02  2.3980567535423637e+02  3.0788434619387874e+02  3.6730026926285819e+02  3.9131748614412498e+02  3.8897010402570459e+02  3.7747299615765809e+02  3.6478916871274367e+02  3.5273357626910740e+02  3.4192938426223611e+02  3.3239322398690507e+02  3.2400672139732694e+02  3.1662561328714190e+02  3.1011550959027107e+02  3.0436046902136007e+02  2.9926301729954702e+02  2.9474174157641295e+02  2.9072852019062486e+02  2.8716602646382410e+02  2.8400564878917811e+02  2.8120580485199042e+02  2.7873058292150631e+02  2.7654863983228699e+02  2.7463229463889110e+02  2.7295676849529661e+02  2.7149953156282669e+02  2.7023972576638778e+02  2.6915763797131251e+02  2.6823420185996929e+02  2.6745050863860723e+02  2.6678730677248399e+02  2.6622446911103350e+02  2.6574040165403574e+02  2.6531136109040818e+02  2.6491063682348232e+02  2.6450753529698596e+02  2.6406607637716405e+02  2.6354326703740441e+02  2.6288674570638676e+02  2.6203147193164284e+02  2.6089493502237184e+02  2.5937000575982228e+02  2.5731393023177753e+02  2.5453081772697445e+02  2.5074282793351114e+02  2.4554124986201742e+02  2.3830171059858111e+02  2.2803965776912781e+02  2.1320254050396963e+02  1.9173316086451081e+02  1.6436681514201399e+02  1.5795135285033885e+02  2.2494796469411702e+02  2.6746735735496634e+02  3.0183422461728003e+02  3.2992738278817944e+02  3.4202695813889102e+02  3.4313481384953980e+02  3.3892749220679502e+02  3.3259329716989498e+02  3.2568609396218068e+02  3.1888821032418440e+02  3.1249169453957035e+02  3.0660228544247542e+02  3.0124099818930858e+02  2.9639082224548378e+02  2.9201889782464542e+02  2.8808704532158572e+02  2.8455670022220221e+02  2.8139111307475673e+02  2.7855619794765221e+02  2.7602071149386762e+02  2.7375610353093913e+02  2.7173621037341422e+02  2.6993687613964727e+02  2.6833554286878876e+02  2.6691082692434128e+02  2.6564208645870161e+02  2.6450897732206755e+02  2.6349098985211077e+02  2.6256695483609286e+02  2.6171450253181399e+02  2.6090945310442413e+02  2.6012510928525921e+02  2.5933141132730708e+02  2.5849389877558139e+02  2.5757240069091642e+02  2.5651934192037055e+02  2.5527750178553646e+02  2.5377698382667026e+02  2.5193103669064942e+02  2.4963018621947469e+02  2.4673387162977215e+02  2.4305840934455156e+02  2.3835970286187751e+02  2.3230910291637232e+02  2.2446305500100843e+02  2.1423903063315666e+02  2.0096074796811419e+02  1.8424160552720690e+02  1.6572550526040328e+02  1.5469739553874930e+02  1.7263316735267136e+02  2.2407687424972860e+02  2.4207764030966442e+02  2.6440254524045685e+02  2.8710962245175728e+02  3.0253964841141027e+02  3.1002418711400929e+02  3.1190628175466964e+02  3.1048822563549163e+02  3.0733134579744689e+02  3.0336924099613714e+02  2.9913117503425036e+02  2.9490680629420802e+02  2.9084938808605028e+02  2.8703487906405627e+02  2.8349563346409121e+02  2.8023949662010205e+02  2.7726069711612297e+02  2.7454609006097229e+02  2.7207873504521081e+02  2.6983992275983110e+02  2.6781028346510880e+02  2.6597034195393513e+02  2.6430073149371555e+02  2.6278219150098369e+02  2.6139542204918354e+02  2.6012083704712865e+02  2.5893823822262010e+02  2.5782641880247593e+02  2.5676269594036870e+02  2.5572236255243993e+02  2.5467804088180085e+02  2.5359891066859788e+02  2.5244977310086600e+02  2.5118989648024814e+02  2.4977156924136042e+02  2.4813825892744021e+02  2.4622224052451006e+02  2.4394151450468257e+02  2.4119579037576247e+02  2.3786128968981791e+02  2.3378419755158774e+02  2.2877297568561795e+02  2.2259103597100639e+02  2.1495511944010275e+02  2.0555579588400104e+02  1.9414781450146120e+02  1.8084368128648930e+02  1.6694370954999525e+02  1.5680671304946137e+02  1.5964715059957717e+02  1.8396827696993063e+02  2.2475569994607196e+02  2.2390245122123662e+02  2.3931350675332180e+02  2.5682567405928893e+02  2.7145057200556363e+02  2.8122319314376523e+02  2.8653868321899614e+02  2.8856300609017109e+02  2.8842044257713115e+02  2.8695607064566735e+02  2.8474309899150643e+02  2.8215121006104346e+02  2.7941186636141407e+02  2.7666648928493612e+02  2.7399892255813597e+02  2.7145643920716981e+02  2.6906313522231767e+02  2.6682842186274422e+02  2.6475239993774574e+02  2.6282924932253155e+02  2.6104934600256934e+02  2.5940055373115672e+02  2.5786897182648238e+02  2.5643931709627310e+02  2.5509505251651902e+02  2.5381833335561228e+02  2.5258981383472258e+02  2.5138833853066348e+02  2.5019052902400898e+02  2.4897026550928013e+02  2.4769805370653842e+02  2.4634025845350334e+02  2.4485817618810339e+02  2.4320690905006137e+02  2.4133399426023882e+02  2.3917773637895908e+02  2.3666519363744675e+02  2.3370979851947877e+02  2.3020868319609900e+02  2.2604001433542018e+02  2.2106120606516592e+02  2.1511020241821060e+02  2.0801508401692791e+02  1.9962428871686188e+02  1.8988554652961278e+02  1.7903475878846706e+02  1.6800999069967665e+02  1.5920556355712193e+02  1.5721106861518336e+02  1.6762654580090785e+02  1.9226998693752563e+02  2.2587035092415888e+02  2.1000744275823880e+02  2.2113083841049897e+02  2.3460074739392226e+02  2.4724698480847712e+02  2.5719289943297548e+02  2.6401408635416431e+02  2.6809236362088211e+02  2.7006853503781394e+02  2.7055729100505710e+02  2.7005086532807229e+02  2.6891100462410316e+02  2.6739130721947595e+02  2.6566436086377342e+02  2.6384494437225908e+02  2.6200757754132752e+02  2.6019907261677059e+02  2.5844725721388335e+02  2.5676694096123259e+02  2.5516395219440116e+02  2.5363783807290955e+02  2.5218364005938855e+02  2.5079302610340886e+02  2.4945497011008723e+02  2.4815610707817561e+02  2.4688084973103301e+02  2.4561132309730587e+02  2.4432715288974836e+02  2.4300512872208748e+02  2.4161875226464991e+02  2.4013767225909038e+02  2.3852700246141126e+02  2.3674651546442541e+02  2.3474970659078264e+02  2.3248273143268742e+02  2.2988324601859179e+02  2.2687923586099848e+02  2.2338804093937219e+02  2.1931603130614133e+02  2.1455988935894229e+02  2.0901146387871057e+02  2.0257017919277203e+02  1.9517095844327383e+02  1.8684313234361915e+02  1.7782845607488517e+02  1.6880055608968433e+02  1.6121214205591036e+02  1.5763411759574441e+02  1.6148791871204784e+02  1.7534856179035543e+02  1.9862578998906815e+02  2.2727019166979625e+02  1.9890910800235801e+02  2.0716655643997501e+02  2.1760183951791677e+02  2.2817237103939567e+02  2.3737579210917170e+02  2.4454634154912256e+02  2.4963986584155072e+02  2.5293320440085031e+02  2.5480397399855713e+02  2.5561467851798503e+02  2.5566774978750152e+02  2.5519762735280690e+02  2.5437823736943290e+02  2.5333485441748965e+02  2.5215561938502694e+02  2.5090111886686009e+02  2.4961179323482321e+02  2.4831343852774077e+02  2.4702118811886248e+02  2.4574233639083533e+02  2.4447829989679141e+02  2.4322594197751698e+02  2.4197842781762165e+02  2.4072573087528420e+02  2.3945487708904147e+02  2.3814998791455645e+02  2.3679216487967759e+02  2.3535924531329496e+02  2.3382545015525818e+02  2.3216093992341220e+02  2.3033129447231099e+02  2.2829693777934622e+02  2.2601254420543179e+02  2.2342649432497819e+02  2.2048050918501255e+02  2.1710970494224443e+02  2.1324351759053476e+02  2.0880832676436518e+02  2.0373329563631839e+02  1.9796217695699525e+02  1.9147598384628012e+02  1.8433492803257667e+02  1.7675283276019456e+02  1.6922038626728164e+02  1.6268187459645529e+02  1.5870664138077160e+02  1.5943749877780661e+02  1.6696380247695325e+02  1.8214069849313358e+02  2.0374865401101755e+02  2.2884982207481775e+02  1.8976568962292595e+02  1.9599929355594310e+02  2.0414939323632194e+02  2.1286353592373780e+02  2.2100373835109144e+02  2.2790352171580327e+02  2.3332622527256376e+02  2.3731969142451638e+02  2.4007343309941541e+02  2.4182109357161207e+02  2.4278723122829086e+02  2.4316448978160693e+02  2.4310784672646437e+02  2.4273697219801500e+02  2.4214161253655695e+02  2.4138747035398777e+02  2.4052149747554509e+02  2.3957625040643060e+02  2.3857329279038660e+02  2.3752575991346188e+02  2.3644023437492999e+02  2.3531807499340260e+02  2.3415631957244830e+02  2.3294825831320890e+02  2.3168375327322042e+02  2.3034936190018033e+02  2.2892830957706491e+02  2.2740034720419146e+02  2.2574152518200850e+02  2.2392391531668744e+02  2.2191531860315834e+02  2.1967901241838246e+02  2.1717362059411869e+02  2.1435324320147271e+02  2.1116807521227759e+02  2.0756590076515417e+02  2.0349511615061874e+02  1.9891037980585099e+02  1.9378271598326589e+02  1.8811703998624881e+02  1.8198169744927810e+02  1.7555639332135945e+02  1.6920507136922794e+02  1.6357321486046743e+02  1.5968176021467752e+02  1.5892838416501300e+02  1.6284264647891075e+02  1.7252147844202725e+02  1.8800204529038032e+02  2.0805012014964731e+02  2.3053957265688885e+02  1.8206055359614675e+02  1.8680260358229211e+02  1.9320500610941718e+02  2.0034520073310065e+02  2.0737444301875647e+02  2.1370795940835828e+02  2.1904460582805618e+02  2.2330546412094557e+02  2.2655014105610493e+02  2.2890645052068373e+02  2.3052327835912627e+02  2.3154398226405110e+02  2.3209403027306504e+02  2.3227712395399979e+02  2.3217574544605444e+02  2.3185364109824252e+02  2.3135887084600077e+02  2.3072674476109393e+02  2.2998236014452345e+02  2.2914265749409194e+02  2.2821801136756420e+02  2.2721341216971345e+02  2.2612930591333199e+02  2.2496215680027257e+02  2.2370479035829192e+02  2.2234656709912178e+02  2.2087343042984901e+02  2.1926786915080550e+02  2.1750883542453124e+02  2.1557166506158978e+02  2.1342806064274657e+02  2.1104622314604177e+02  2.0839126052347791e+02  2.0542607193386769e+02  2.0211301961546184e+02  1.9841688031828804e+02  1.9430984873420235e+02  1.8977978905893261e+02  1.8484353291565890e+02  1.7956776983605172e+02  1.7410069180222331e+02  1.6871706698085407e+02  1.6387529965875947e+02  1.6027234984356821e+02  1.5885627767967688e+02  1.6072600447557409e+02  1.6686132850050203e+02  1.7774246719652314e+02  1.9306956260599645e+02  2.1177044414662342e+02  2.3228729088700541e+02  1.7545759532941358e+02  1.7906284805726654e+02  1.8410492948754577e+02  1.8993562080399354e+02  1.9592107747419999e+02  2.0157508505644913e+02  2.0659463807831798e+02  2.1084000233000410e+02  2.1428942171723676e+02  2.1699281699456586e+02  2.1903537218418069e+02  2.2051320666390839e+02  2.2151920092027970e+02  2.2213596665041021e+02  2.2243326851214866e+02  2.2246793073105673e+02  2.2228495199374498e+02  2.2191907050049747e+02  2.2139636598927783e+02  2.2073569732543038e+02  2.1994989607872324e+02  2.1904670218937036e+02  2.1802946052150907e+02  2.1689761156048613e+02  2.1564701472000621e+02  2.1427014407203833e+02  2.1275619708649972e+02  2.1109115940670466e+02  2.0925787468691033e+02  2.0723618017361434e+02  2.0500318885315511e+02  2.0253383172719325e+02  1.9980182522090035e+02  1.9678130775916591e+02  1.9344950849642026e+02  1.8979098553230381e+02  1.8580421563486124e+02  1.8151163375528844e+02  1.7697455885448193e+02  1.7231461146833703e+02  1.6774270273168861e+02  1.6359428028081908e+02  1.6036323037346270e+02  1.5871483099357755e+02  1.5944358775934410e+02  1.6334130595337672e+02  1.7098092230815635e+02  1.8249719395139326e+02  1.9748257112062447e+02  2.1505388330839887e+02  2.3405149815364868e+02  1.6972865240790020e+02  1.7244423696572429e+02  1.7640981428645134e+02  1.8115663638324281e+02  1.8620693964961416e+02  1.9116549672218392e+02  1.9575432380109086e+02  1.9981152982060328e+02  2.0326887728261008e+02  2.0612322851033250e+02  2.0841066317462952e+02  2.1018679691359006e+02  2.1151356228878973e+02  2.1245127208963422e+02  2.1305444905575675e+02  2.1337008427047601e+02  2.1343732143620485e+02  2.1328788743572491e+02  2.1294684298230180e+02  2.1243340522312781e+02  2.1176171060553472e+02  2.1094145844375765e+02  2.0997841834646678e+02  2.0887480910889286e+02  2.0762957057314023e+02  2.0623855853019373e+02  2.0469469954945660e+02  2.0298815031360621e+02  2.0110651689230474e+02  1.9903520578551533e+02  1.9675800342036641e+02  1.9425801789229126e+02  1.9151917111654870e+02  1.8852850735871939e+02  1.8527969175593438e+02  1.8177821318612325e+02  1.7804897077419366e+02  1.7414706981470459e+02  1.7017265882996523e+02  1.6629021885925590e+02  1.6275130255646957e+02  1.5991643323703684e+02  1.5826597995353313e+02  1.5838251045843259e+02  1.6088464762359689e+02  1.6630625631564743e+02  1.7494912070026731e+02  1.8676971294661288e+02  2.0135424766734641e+02  2.1798950467681570e+02  2.3579858142314438e+02  1.6471388838000391e+02  1.6671862000176625e+02  1.6981991788490487e+02  1.7366921574821393e+02  1.7790149244473136e+02  1.8219779339109564e+02  1.8631394575505161e+02  1.9008681371102494e+02  1.9342464354857614e+02  1.9629047593029838e+02  1.9868483306182702e+02  2.0063099958294697e+02  2.0216400009678782e+02  2.0332311553372563e+02  2.0414724647428278e+02  2.0467232964262092e+02  2.0493011407399763e+02  2.0494776743134801e+02  2.0474794229933869e+02  2.0434906135894892e+02  2.0376567511766717e+02  2.0300881124977357e+02  2.0208627790893911e+02  2.0100291151910065e+02  1.9976077813219896e+02  1.9835935072467566e+02  1.9679569602180831e+02  1.9506471615714838e+02  1.9315950496842459e+02  1.9107189827448653e+02  1.8879332459192733e+02  1.8631610027900635e+02  1.8363536400146546e+02  1.8075191184145172e+02  1.7767627513583642e+02  1.7443446795003786e+02  1.7107588841660635e+02  1.6768381211760519e+02  1.6438860842936225e+02  1.6138295900807080e+02  1.5893655745148240e+02  1.5740471027880943e+02  1.5722143030735708e+02  1.5886553817031674e+02  1.6279294427291367e+02  1.6934338638760121e+02  1.7864967862304860e+02  1.9058525812266441e+02  2.0477077007143234e+02  2.2063367312101516e+02  2.3750111626457294e+02  1.6029873832901083e+02  1.6172638437913005e+02  1.6412551312932311e+02  1.6722976349453958e+02  1.7075572809726808e+02  1.7444562328257214e+02  1.7808934867560490e+02  1.8153275767002228e+02  1.8467474257955203e+02  1.8745825705299134e+02  1.8985934215237339e+02  1.9187676048437689e+02  1.9352347798005653e+02  1.9482030493627826e+02  1.9579150139711379e+02  1.9646194854756240e+02  1.9685546128282760e+02  1.9699387411547804e+02  1.9689661633584663e+02  1.9658057393375520e+02  1.9606010365530722e+02  1.9534711643403213e+02  1.9445118523943762e+02  1.9337965945728209e+02  1.9213778768504233e+02  1.9072886631817238e+02  1.8915444506086087e+02  1.8741463467422892e+02  1.8550857882239055e+02  1.8343517259083185e+02  1.8119413685480902e+02  1.7878759152352447e+02  1.7622231207274368e+02  1.7351290020545841e+02  1.7068614210663304e+02  1.6778684459831271e+02  1.6488538376024084e+02  1.6208698364352824e+02  1.5954221811134781e+02  1.5745720296917753e+02  1.5610028079583853e+02  1.5579991516172385e+02  1.5692708943225978e+02  1.5985697906452231e+02  1.6491126854462794e+02  1.7229320281809780e+02  1.8203570425980689e+02  1.9398081708496727e+02  2.0779646748490799e+02  2.2302283688554567e+02  2.3913670242127776e+02  1.5639976379521920e+02  1.5735340716216297e+02  1.5917683318337606e+02  1.6166098406388375e+02  1.6458185907939523e+02  1.6772965381950237e+02  1.7092499976331470e+02  1.7402689178943774e+02  1.7693306052623385e+02  1.7957562294493508e+02  1.8191453175232641e+02  1.8393067217536159e+02  1.8561967626475200e+02  1.8698691130563466e+02  1.8804370381308536e+02  1.8880465356297631e+02  1.8928581419885555e+02  1.8950351373526252e+02  1.8947362051276326e+02  1.8921110389393934e+02  1.8872978173573975e+02  1.8804218326333040e+02  1.8715948532634812e+02  1.8609150304743977e+02  1.8484673425332531e+02  1.8343247265723554e+02  1.8185501927770494e+02  1.8012003659810486e+02  1.7823310685513502e+02  1.7620057567421458e+02  1.7403078565418966e+02  1.7173583101913854e+02  1.6933399154795970e+02  1.6685302481389860e+02  1.6433449540502443e+02  1.6183926931924245e+02  1.5945415045688782e+02  1.5729930600721494e+02  1.5553552204917742e+02  1.5436938645379490e+02  1.5405331723833842e+02  1.5487643518497691e+02  1.5714265662445573e+02  1.6113527569214207e+02  1.6707285040301477e+02  1.7506702387998027e+02  1.8509481036305905e+02  1.9699359155803387e+02  2.1047922404959110e+02  2.2518103116891780e+02  2.4068707901306786e+02  1.5295557625644588e+02  1.5351680669827186e+02  1.5486521882910705e+02  1.5683236823836492e+02  1.5923778767595655e+02  1.6190886953639307e+02  1.6469245993980402e+02  1.6746156143222782e+02  1.7011710176639158e+02  1.7258628387560466e+02  1.7481899976227609e+02  1.7678352505440614e+02  1.7846230074788679e+02  1.7984823787721675e+02  1.8094170902394947e+02  1.8174822310126854e+02  1.8227669504154599e+02  1.8253819244985581e+02  1.8254504353907771e+02  1.8231020820002396e+02  1.8184683679088488e+02  1.8116796384137456e+02  1.8028630416690962e+02  1.7921413646472104e+02  1.7796327484445848e+02  1.7654514282181702e+02  1.7497097807675047e+02  1.7325221063433989e+02  1.7140107274122710e+02  1.6943151577980998e+02  1.6736052746519684e+02  1.6520995909146447e+02  1.6300898267180611e+02  1.6079729142085407e+02  1.5862911612061441e+02  1.5657802492603457e+02  1.5474226230916915e+02  1.5325001430858495e+02  1.5226343183957701e+02  1.5197955416071679e+02  1.5262568771485553e+02  1.5444681198840004e+02  1.5768385331732841e+02  1.6254448776576925e+02  1.6917172506158224e+02  1.7761791064846648e+02  1.8783108157356250e+02  1.9965689237769169e+02  2.1285484318195478e+02  2.2712440609595785e+02  2.4213741842537755e+02  1.4992078142457189e+02  1.5015576450128938e+02  1.5111090799863530e+02  1.5264696368386524e+02  1.5461557893088110e+02  1.5687280150742600e+02  1.5928712512226303e+02  1.6174476991850759e+02  1.6415186097221712e+02  1.6643427906791996e+02  1.6853600030009093e+02  1.7041666585161138e+02  1.7204892892013834e+02  1.734159235704702