<?xml version="1.0"?>
<VTKFile type="UnstructuredGrid"  version="0.1"  >
<UnstructuredGrid>
<Piece  NumberOfPoints="2601" NumberOfCells="5000">
<Points>
<DataArray  type="Float64"  NumberOfComponents="3"  format="ascii">0 0 0  0.02 0 0  0.04 0 0  0.06 0 0  0.08 0 0  0.1 0 0  0.12 0 0  0.14 0 0  0.16 0 0  0.18 0 0  0.2 0 0  0.22 0 0  0.24 0 0  0.26 0 0  0.28 0 0  0.3 0 0  0.32 0 0  0.34 0 0  0.36 0 0  0.38 0 0  0.4 0 0  0.42 0 0  0.44 0 0  0.46 0 0  0.48 0 0  0.5 0 0  0.52 0 0  0.54 0 0  0.5600000000000001 0 0  0.58 0 0  0.6 0 0  0.62 0 0  0.64 0 0  0.66 0 0  0.68 0 0  0.7 0 0  0.72 0 0  0.74 0 0  0.76 0 0  0.78 0 0  0.8 0 0  0.82 0 0  0.84 0 0  0.86 0 0  0.88 0 0  0.9 0 0  0.92 0 0  0.9399999999999999 0 0  0.96 0 0  0.98 0 0  1 0 0  0 0.02 0  0.02 0.02 0  0.04 0.02 0  0.06 0.02 0  0.08 0.02 0  0.1 0.02 0  0.12 0.02 0  0.14 0.02 0  0.16 0.02 0  0.18 0.02 0  0.2 0.02 0  0.22 0.02 0  0.24 0.02 0  0.26 0.02 0  0.28 0.02 0  0.3 0.02 0  0.32 0.02 0  0.34 0.02 0  0.36 0.02 0  0.38 0.02 0  0.4 0.02 0  0.42 0.02 0  0.44 0.02 0  0.46 0.02 0  0.48 0.02 0  0.5 0.02 0  0.52 0.02 0  0.54 0.02 0  0.5600000000000001 0.02 0  0.58 0.02 0  0.6 0.02 0  0.62 0.02 0  0.64 0.02 0  0.66 0.02 0  0.68 0.02 0  0.7 0.02 0  0.72 0.02 0  0.74 0.02 0  0.76 0.02 0  0.78 0.02 0  0.8 0.02 0  0.82 0.02 0  0.84 0.02 0  0.86 0.02 0  0.88 0.02 0  0.9 0.02 0  0.92 0.02 0  0.9399999999999999 0.02 0  0.96 0.02 0  0.98 0.02 0  1 0.02 0  0 0.04 0  0.02 0.04 0  0.04 0.04 0  0.06 0.04 0  0.08 0.04 0  0.1 0.04 0  0.12 0.04 0  0.14 0.04 0  0.16 0.04 0  0.18 0.04 0  0.2 0.04 0  0.22 0.04 0  0.24 0.04 0  0.26 0.04 0  0.28 0.04 0  0.3 0.04 0  0.32 0.04 0  0.34 0.04 0  0.36 0.04 0  0.38 0.04 0  0.4 0.04 0  0.42 0.04 0  0.44 0.04 0  0.46 0.04 0  0.48 0.04 0  0.5 0.04 0  0.52 0.04 0  0.54 0.04 0  0.5600000000000001 0.04 0  0.58 0.04 0  0.6 0.04 0  0.62 0.04 0  0.64 0.04 0  0.66 0.04 0  0.68 0.04 0  0.7 0.04 0  0.72 0.04 0  0.74 0.04 0  0.76 0.04 0  0.78 0.04 0  0.8 0.04 0  0.82 0.04 0  0.84 0.04 0  0.86 0.04 0  0.88 0.04 0  0.9 0.04 0  0.92 0.04 0  0.9399999999999999 0.04 0  0.96 0.04 0  0.98 0.04 0  1 0.04 0  0 0.06 0  0.02 0.06 0  0.04 0.06 0  0.06 0.06 0  0.08 0.06 0  0.1 0.06 0  0.12 0.06 0  0.14 0.06 0  0.16 0.06 0  0.18 0.06 0  0.2 0.06 0  0.22 0.06 0  0.24 0.06 0  0.26 0.06 0  0.28 0.06 0  0.3 0.06 0  0.32 0.06 0  0.34 0.06 0  0.36 0.06 0  0.38 0.06 0  0.4 0.06 0  0.42 0.06 0  0.44 0.06 0  0.46 0.06 0  0.48 0.06 0  0.5 0.06 0  0.52 0.06 0  0.54 0.06 0  0.5600000000000001 0.06 0  0.58 0.06 0  0.6 0.06 0  0.62 0.06 0  0.64 0.06 0  0.66 0.06 0  0.68 0.06 0  0.7 0.06 0  0.72 0.06 0  0.74 0.06 0  0.76 0.06 0  0.78 0.06 0  0.8 0.06 0  0.82 0.06 0  0.84 0.06 0  0.86 0.06 0  0.88 0.06 0  0.9 0.06 0  0.92 0.06 0  0.9399999999999999 0.06 0  0.96 0.06 0  0.98 0.06 0  1 0.06 0  0 0.08 0  0.02 0.08 0  0.04 0.08 0  0.06 0.08 0  0.08 0.08 0  0.1 0.08 0  0.12 0.08 0  0.14 0.08 0  0.16 0.08 0  0.18 0.08 0  0.2 0.08 0  0.22 0.08 0  0.24 0.08 0  0.26 0.08 0  0.28 0.08 0  0.3 0.08 0  0.32 0.08 0  0.34 0.08 0  0.36 0.08 0  0.38 0.08 0  0.4 0.08 0  0.42 0.08 0  0.44 0.08 0  0.46 0.08 0  0.48 0.08 0  0.5 0.08 0  0.52 0.08 0  0.54 0.08 0  0.5600000000000001 0.08 0  0.58 0.08 0  0.6 0.08 0  0.62 0.08 0  0.64 0.08 0  0.66 0.08 0  0.68 0.08 0  0.7 0.08 0  0.72 0.08 0  0.74 0.08 0  0.76 0.08 0  0.78 0.08 0  0.8 0.08 0  0.82 0.08 0  0.84 0.08 0  0.86 0.08 0  0.88 0.08 0  0.9 0.08 0  0.92 0.08 0  0.9399999999999999 0.08 0  0.96 0.08 0  0.98 0.08 0  1 0.08 0  0 0.1 0  0.02 0.1 0  0.04 0.1 0  0.06 0.1 0  0.08 0.1 0  0.1 0.1 0  0.12 0.1 0  0.14 0.1 0  0.16 0.1 0  0.18 0.1 0  0.2 0.1 0  0.22 0.1 0  0.24 0.1 0  0.26 0.1 0  0.28 0.1 0  0.3 0.1 0  0.32 0.1 0  0.34 0.1 0  0.36 0.1 0  0.38 0.1 0  0.4 0.1 0  0.42 0.1 0  0.44 0.1 0  0.46 0.1 0  0.48 0.1 0  0.5 0.1 0  0.52 0.1 0  0.54 0.1 0  0.5600000000000001 0.1 0  0.58 0.1 0  0.6 0.1 0  0.62 0.1 0  0.64 0.1 0  0.66 0.1 0  0.68 0.1 0  0.7 0.1 0  0.72 0.1 0  0.74 0.1 0  0.76 0.1 0  0.78 0.1 0  0.8 0.1 0  0.82 0.1 0  0.84 0.1 0  0.86 0.1 0  0.88 0.1 0  0.9 0.1 0  0.92 0.1 0  0.9399999999999999 0.1 0  0.96 0.1 0  0.98 0.1 0  1 0.1 0  0 0.12 0  0.02 0.12 0  0.04 0.12 0  0.06 0.12 0  0.08 0.12 0  0.1 0.12 0  0.12 0.12 0  0.14 0.12 0  0.16 0.12 0  0.18 0.12 0  0.2 0.12 0  0.22 0.12 0  0.24 0.12 0  0.26 0.12 0  0.28 0.12 0  0.3 0.12 0  0.32 0.12 0  0.34 0.12 0  0.36 0.12 0  0.38 0.12 0  0.4 0.12 0  0.42 0.12 0  0.44 0.12 0  0.46 0.12 0  0.48 0.12 0  0.5 0.12 0  0.52 0.12 0  0.54 0.12 0  0.5600000000000001 0.12 0  0.58 0.12 0  0.6 0.12 0  0.62 0.12 0  0.64 0.12 0  0.66 0.12 0  0.68 0.12 0  0.7 0.12 0  0.72 0.12 0  0.74 0.12 0  0.76 0.12 0  0.78 0.12 0  0.8 0.12 0  0.82 0.12 0  0.84 0.12 0  0.86 0.12 0  0.88 0.12 0  0.9 0.12 0  0.92 0.12 0  0.9399999999999999 0.12 0  0.96 0.12 0  0.98 0.12 0  1 0.12 0  0 0.14 0  0.02 0.14 0  0.04 0.14 0  0.06 0.14 0  0.08 0.14 0  0.1 0.14 0  0.12 0.14 0  0.14 0.14 0  0.16 0.14 0  0.18 0.14 0  0.2 0.14 0  0.22 0.14 0  0.24 0.14 0  0.26 0.14 0  0.28 0.14 0  0.3 0.14 0  0.32 0.14 0  0.34 0.14 0  0.36 0.14 0  0.38 0.14 0  0.4 0.14 0  0.42 0.14 0  0.44 0.14 0  0.46 0.14 0  0.48 0.14 0  0.5 0.14 0  0.52 0.14 0  0.54 0.14 0  0.5600000000000001 0.14 0  0.58 0.14 0  0.6 0.14 0  0.62 0.14 0  0.64 0.14 0  0.66 0.14 0  0.68 0.14 0  0.7 0.14 0  0.72 0.14 0  0.74 0.14 0  0.76 0.14 0  0.78 0.14 0  0.8 0.14 0  0.82 0.14 0  0.84 0.14 0  0.86 0.14 0  0.88 0.14 0  0.9 0.14 0  0.92 0.14 0  0.9399999999999999 0.14 0  0.96 0.14 0  0.98 0.14 0  1 0.14 0  0 0.16 0  0.02 0.16 0  0.04 0.16 0  0.06 0.16 0  0.08 0.16 0  0.1 0.16 0  0.12 0.16 0  0.14 0.16 0  0.16 0.16 0  0.18 0.16 0  0.2 0.16 0  0.22 0.16 0  0.24 0.16 0  0.26 0.16 0  0.28 0.16 0  0.3 0.16 0  0.32 0.16 0  0.34 0.16 0  0.36 0.16 0  0.38 0.16 0  0.4 0.16 0  0.42 0.16 0  0.44 0.16 0  0.46 0.16 0  0.48 0.16 0  0.5 0.16 0  0.52 0.16 0  0.54 0.16 0  0.5600000000000001 0.16 0  0.58 0.16 0  0.6 0.16 0  0.62 0.16 0  0.64 0.16 0  0.66 0.16 0  0.68 0.16 0  0.7 0.16 0  0.72 0.16 0  0.74 0.16 0  0.76 0.16 0  0.78 0.16 0  0.8 0.16 0  0.82 0.16 0  0.84 0.16 0  0.86 0.16 0  0.88 0.16 0  0.9 0.16 0  0.92 0.16 0  0.9399999999999999 0.16 0  0.96 0.16 0  0.98 0.16 0  1 0.16 0  0 0.18 0  0.02 0.18 0  0.04 0.18 0  0.06 0.18 0  0.08 0.18 0  0.1 0.18 0  0.12 0.18 0  0.14 0.18 0  0.16 0.18 0  0.18 0.18 0  0.2 0.18 0  0.22 0.18 0  0.24 0.18 0  0.26 0.18 0  0.28 0.18 0  0.3 0.18 0  0.32 0.18 0  0.34 0.18 0  0.36 0.18 0  0.38 0.18 0  0.4 0.18 0  0.42 0.18 0  0.44 0.18 0  0.46 0.18 0  0.48 0.18 0  0.5 0.18 0  0.52 0.18 0  0.54 0.18 0  0.5600000000000001 0.18 0  0.58 0.18 0  0.6 0.18 0  0.62 0.18 0  0.64 0.18 0  0.66 0.18 0  0.68 0.18 0  0.7 0.18 0  0.72 0.18 0  0.74 0.18 0  0.76 0.18 0  0.78 0.18 0  0.8 0.18 0  0.82 0.18 0  0.84 0.18 0  0.86 0.18 0  0.88 0.18 0  0.9 0.18 0  0.92 0.18 0  0.9399999999999999 0.18 0  0.96 0.18 0  0.98 0.18 0  1 0.18 0  0 0.2 0  0.02 0.2 0  0.04 0.2 0  0.06 0.2 0  0.08 0.2 0  0.1 0.2 0  0.12 0.2 0  0.14 0.2 0  0.16 0.2 0  0.18 0.2 0  0.2 0.2 0  0.22 0.2 0  0.24 0.2 0  0.26 0.2 0  0.28 0.2 0  0.3 0.2 0  0.32 0.2 0  0.34 0.2 0  0.36 0.2 0  0.38 0.2 0  0.4 0.2 0  0.42 0.2 0  0.44 0.2 0  0.46 0.2 0  0.48 0.2 0  0.5 0.2 0  0.52 0.2 0  0.54 0.2 0  0.5600000000000001 0.2 0  0.58 0.2 0  0.6 0.2 0  0.62 0.2 0  0.64 0.2 0  0.66 0.2 0  0.68 0.2 0  0.7 0.2 0  0.72 0.2 0  0.74 0.2 0  0.76 0.2 0  0.78 0.2 0  0.8 0.2 0  0.82 0.2 0  0.84 0.2 0  0.86 0.2 0  0.88 0.2 0  0.9 0.2 0  0.92 0.2 0  0.9399999999999999 0.2 0  0.96 0.2 0  0.98 0.2 0  1 0.2 0  0 0.22 0  0.02 0.22 0  0.04 0.22 0  0.06 0.22 0  0.08 0.22 0  0.1 0.22 0  0.12 0.22 0  0.14 0.22 0  0.16 0.22 0  0.18 0.22 0  0.2 0.22 0  0.22 0.22 0  0.24 0.22 0  0.26 0.22 0  0.28 0.22 0  0.3 0.22 0  0.32 0.22 0  0.34 0.22 0  0.36 0.22 0  0.38 0.22 0  0.4 0.22 0  0.42 0.22 0  0.44 0.22 0  0.46 0.22 0  0.48 0.22 0  0.5 0.22 0  0.52 0.22 0  0.54 0.22 0  0.5600000000000001 0.22 0  0.58 0.22 0  0.6 0.22 0  0.62 0.22 0  0.64 0.22 0  0.66 0.22 0  0.68 0.22 0  0.7 0.22 0  0.72 0.22 0  0.74 0.22 0  0.76 0.22 0  0.78 0.22 0  0.8 0.22 0  0.82 0.22 0  0.84 0.22 0  0.86 0.22 0  0.88 0.22 0  0.9 0.22 0  0.92 0.22 0  0.9399999999999999 0.22 0  0.96 0.22 0  0.98 0.22 0  1 0.22 0  0 0.24 0  0.02 0.24 0  0.04 0.24 0  0.06 0.24 0  0.08 0.24 0  0.1 0.24 0  0.12 0.24 0  0.14 0.24 0  0.16 0.24 0  0.18 0.24 0  0.2 0.24 0  0.22 0.24 0  0.24 0.24 0  0.26 0.24 0  0.28 0.24 0  0.3 0.24 0  0.32 0.24 0  0.34 0.24 0  0.36 0.24 0  0.38 0.24 0  0.4 0.24 0  0.42 0.24 0  0.44 0.24 0  0.46 0.24 0  0.48 0.24 0  0.5 0.24 0  0.52 0.24 0  0.54 0.24 0  0.5600000000000001 0.24 0  0.58 0.24 0  0.6 0.24 0  0.62 0.24 0  0.64 0.24 0  0.66 0.24 0  0.68 0.24 0  0.7 0.24 0  0.72 0.24 0  0.74 0.24 0  0.76 0.24 0  0.78 0.24 0  0.8 0.24 0  0.82 0.24 0  0.84 0.24 0  0.86 0.24 0  0.88 0.24 0  0.9 0.24 0  0.92 0.24 0  0.9399999999999999 0.24 0  0.96 0.24 0  0.98 0.24 0  1 0.24 0  0 0.26 0  0.02 0.26 0  0.04 0.26 0  0.06 0.26 0  0.08 0.26 0  0.1 0.26 0  0.12 0.26 0  0.14 0.26 0  0.16 0.26 0  0.18 0.26 0  0.2 0.26 0  0.22 0.26 0  0.24 0.26 0  0.26 0.26 0  0.28 0.26 0  0.3 0.26 0  0.32 0.26 0  0.34 0.26 0  0.36 0.26 0  0.38 0.26 0  0.4 0.26 0  0.42 0.26 0  0.44 0.26 0  0.46 0.26 0  0.48 0.26 0  0.5 0.26 0  0.52 0.26 0  0.54 0.26 0  0.5600000000000001 0.26 0  0.58 0.26 0  0.6 0.26 0  0.62 0.26 0  0.64 0.26 0  0.66 0.26 0  0.68 0.26 0  0.7 0.26 0  0.72 0.26 0  0.74 0.26 0  0.76 0.26 0  0.78 0.26 0  0.8 0.26 0  0.82 0.26 0  0.84 0.26 0  0.86 0.26 0  0.88 0.26 0  0.9 0.26 0  0.92 0.26 0  0.9399999999999999 0.26 0  0.96 0.26 0  0.98 0.26 0  1 0.26 0  0 0.28 0  0.02 0.28 0  0.04 0.28 0  0.06 0.28 0  0.08 0.28 0  0.1 0.28 0  0.12 0.28 0  0.14 0.28 0  0.16 0.28 0  0.18 0.28 0  0.2 0.28 0  0.22 0.28 0  0.24 0.28 0  0.26 0.28 0  0.28 0.28 0  0.3 0.28 0  0.32 0.28 0  0.34 0.28 0  0.36 0.28 0  0.38 0.28 0  0.4 0.28 0  0.42 0.28 0  0.44 0.28 0  0.46 0.28 0  0.48 0.28 0  0.5 0.28 0  0.52 0.28 0  0.54 0.28 0  0.5600000000000001 0.28 0  0.58 0.28 0  0.6 0.28 0  0.62 0.28 0  0.64 0.28 0  0.66 0.28 0  0.68 0.28 0  0.7 0.28 0  0.72 0.28 0  0.74 0.28 0  0.76 0.28 0  0.78 0.28 0  0.8 0.28 0  0.82 0.28 0  0.84 0.28 0  0.86 0.28
[...]
<PointData  Scalars="f_113"> 
<DataArray  type="Float64"  Name="f_113"  format="ascii">4.2372719345985720e-06  1.8935223454925341e-02  3.0127116967503698e-02  3.9476582806263240e-02  4.7760752338928271e-02  5.5318842342444337e-02  6.2333484355434267e-02  6.8917895367616541e-02  7.5149079417793072e-02  8.1082981227364792e-02  8.6762325544764679e-02  9.2221048240670622e-02  9.7486971779235682e-02  1.0258350582511082e-01  1.0753077392803405e-01  1.1234638611413025e-01  1.1704598447029696e-01  1.2164363848272644e-01  1.2615213823415092e-01  1.3058321656986485e-01  1.3494772091012197e-01  1.3925574879241004e-01  1.4351675695687408e-01  1.4773965096960959e-01  1.5193286049410487e-01  1.5610440405564152e-01  1.6026194630136764e-01  1.6441285021715846e-01  1.6856422644489361e-01  1.7272298170474240e-01  1.7689586834389573e-01  1.8108953720212476e-01  1.8531059632123628e-01  1.8956567856855305e-01  1.9386152206469873e-01  1.9820506852287270e-01  2.0260358641956355e-01  2.0706482865917095e-01  2.1159723863950597e-01  2.1621022538132670e-01  2.2091453950167284e-01  2.2572280082331495e-01  2.3065026244285508e-01  2.3571596038732040e-01  2.4094452778787129e-01  2.4636923640762362e-01  2.5203751512743111e-01  2.5802204197558243e-01  2.6444510241165087e-01  2.7156722021627500e-01  2.8008589793460720e-01  1.0729524671327271e-06  1.0920461334357534e-02  2.1965467615704046e-02  3.1622985536553821e-02  4.0229598668942164e-02  4.8069267287332920e-02  5.5324897472705255e-02  6.2117214953271223e-02  6.8530028322292477e-02  7.4624455475279558e-02  8.0446999524846324e-02  8.6034330383775406e-02  9.1416244326245899e-02  9.6617570699990774e-02  1.0165944394132731e-01  1.0656017822385551e-01  1.1133588497671275e-01  1.1600091917842639e-01  1.2056820875444549e-01  1.2504950241470925e-01  1.2945555949360657e-01  1.3379629785808766e-01  1.3808091106515225e-01  1.4231796270526112e-01  1.4651546367995963e-01  1.5068093667135865e-01  1.5482147104250626e-01  1.5894377071677690e-01  1.6305419712753288e-01  1.6715880904555547e-01  1.7126340094188655e-01  1.7537354150388410e-01  1.7949461398008751e-01  1.8363186018212271e-01  1.8779043022551090e-01  1.9197544046125584e-01  1.9619204256173436e-01  2.0044550741370648e-01  2.0474132838254350e-01  2.0908534968952805e-01  2.1348392710311459e-01  2.1794412979192931e-01  2.2247399362271830e-01  2.2708283627189907e-01  2.3178164076897464e-01  2.3658350473839210e-01  2.4150416926909168e-01  2.4656306408145501e-01  2.5178975607422460e-01  2.5728990594456125e-01  2.6379165810087207e-01  2.5365740650807765e-07  8.0367933222544579e-03  1.7027649012122694e-02  2.5884817458929326e-02  3.4205103999054569e-02  4.1965207894494060e-02  4.9229439143078695e-02  5.6069500821467930e-02  6.2547303409028698e-02  6.8713476027413858e-02  7.4609188243427202e-02  8.0268246977619528e-02  8.5718823581790810e-02  9.0984761901200736e-02  9.6086545648613256e-02  1.0104201193734193e-01  1.0586688075889016e-01  1.1057515172198729e-01  1.1517940469504021e-01  1.1969103032537982e-01  1.2412040888944058e-01  1.2847705067646281e-01  1.3276970743938854e-01  1.3700646187273449e-01  1.4119480026234368e-01  1.4534167216703961e-01  1.4945354008128750e-01  1.5353642138409010e-01  1.5759592442869250e-01  1.6163728031884272e-01  1.6566537171417570e-01  1.6968475988419365e-01  1.7369971116938235e-01  1.7771422399699799e-01  1.8173205763120426e-01  1.8575676391250406e-01  1.8979172337195024e-01  1.9384018733089017e-01  1.9790532802313707e-01  2.0199029968096704e-01  2.0609831564118611e-01  2.1023275183522047e-01  2.1439730109807709e-01  2.1859624195938507e-01  2.2283500095917702e-01  2.2712154766574918e-01  2.3147035675841299e-01  2.3591482167470604e-01  2.4054790338032925e-01  2.4563694995475474e-01  2.5168251624883581e-01  1.4727964487234093e-07  6.6877672620283988e-03  1.4155794288941207e-02  2.1934337689745148e-02  2.9615914346419525e-02  3.7014886214176708e-02  4.4078708116195367e-02  5.0811280367359206e-02  5.7236388051291123e-02  6.3382822820220522e-02  6.9278817295716860e-02  7.4950215780129698e-02  8.0420091098936358e-02  8.5708887808727929e-02  9.0834726447596381e-02  9.5813727756922859e-02  1.0066030678049150e-01  1.0538742328412230e-01  1.1000678899317358e-01  1.1452903690904331e-01  1.1896385897177926e-01  1.2332011792125645e-01  1.2760593835403181e-01  1.3182878107359081e-01  1.3599550403451349e-01  1.4011241252667245e-01  1.4418530073230945e-01  1.4821948640063456e-01  1.5221984010276252e-01  1.5619081033803386e-01  1.6013644564973800e-01  1.6406041486914297e-01  1.6796602664626784e-01  1.7185624956351445e-01  1.7573373440898254e-01  1.7960084070209476e-01  1.8345967049829540e-01  1.8731211421880720e-01  1.9115991650356923e-01  1.9500477643417188e-01  1.9884850928458755e-01  2.0269332370089918e-01  2.0654232597699534e-01  2.1040049200717806e-01  2.1427664295377633e-01  2.1818764391034307e-01  2.2216756131190060e-01  2.2628724216458343e-01  2.3069024056871654e-01  2.3562283869005693e-01  2.4132741324607662e-01  7.6577517323285114e-08  5.8967283214735539e-03  1.2358775646877386e-02  1.9207723837002699e-02  2.6180583240246049e-02  3.3083434813815746e-02  3.9810723375014317e-02  4.6317127512443386e-02  5.2590613073677038e-02  5.8635700760776698e-02  6.4464428351928393e-02  7.0091752711190516e-02  7.5533294578856935e-02  8.0804277858179577e-02  8.5919068213177602e-02  9.0891007907967059e-02  9.5732393255298365e-02  1.0045451696013873e-01  1.0506773631084526e-01  1.0958154795524201e-01  1.1400466014565232e-01  1.1834505852292164e-01  1.2261006412595618e-01  1.2680638359731333e-01  1.3094015215390262e-01  1.3501697014679789e-01  1.3904193412786775e-01  1.4301966337237393e-01  1.4695432283171411e-01  1.5084964354475092e-01  1.5470894164885518e-01  1.5853513733642635e-01  1.6233077544841423e-01  1.6609804996383015e-01  1.6983883557207186e-01  1.7355473104676042e-01  1.7724712171222415e-01  1.8091727270211400e-01  1.8456647242798349e-01  1.8819625948037147e-01  1.9180879136963383e-01  1.9540746021817626e-01  1.9899794792237718e-01  2.0259007588278818e-01  2.0620109480444199e-01  2.0986151461469996e-01  2.1362499141066094e-01  2.1758282141878724e-01  2.2187639400977710e-01  2.2667943403999671e-01  2.3210378141307453e-01  4.3206154314467605e-08  5.3658143977313262e-03  1.1139030084028674e-02  1.7264359530776742e-02  2.3593887379842755e-02  2.9978387407947962e-02  3.6308479986189392e-02  4.2517217095847874e-02  4.8569231272990954e-02  5.4449440833213465e-02  6.0154819336369882e-02  6.5689127266553973e-02  7.1059732113662066e-02  7.6275745413105986e-02  8.1346951421700495e-02  8.6283201579082786e-02  9.1094080355408572e-02  9.5788728313717417e-02  1.0037575566153446e-01  1.0486320730379783e-01  1.0925855659492180e-01  1.1356871446113855e-01  1.1780004614019458e-01  1.2195839109295017e-01  1.2604908362570827e-01  1.3007697297597390e-01  1.3404644238578892e-01  1.3796142721483079e-01  1.4182543255718047e-01  1.4564155121005942e-01  1.4941248327417808e-01  1.5314055922112804e-01  1.5682776904315296e-01  1.6047580125073438e-01  1.6408609723348516e-01  1.6765992922384554e-01  1.7119851442121703e-01  1.7470318478510122e-01  1.7817564333244096e-01  1.8161835637802701e-01  1.8503516173530871e-01  1.8843222254735800e-01  1.9181953405202062e-01  1.9521330076876076e-01  1.9863961892798371e-01  2.0213988522599774e-01  2.0577774293240081e-01  2.0964502436008220e-01  2.1385849408641236e-01  2.1853230851117592e-01  2.2371834562540138e-01  2.6367352645589607e-08  4.9787355842539341e-03  1.0254831483701198e-02  1.5824603520429893e-02  2.1611276941170102e-02  2.7513382434439237e-02  3.3439200508736763e-02  3.9320049954590056e-02  4.5110375620552305e-02  5.0782913250699190e-02  5.6323328427218843e-02  6.1725866477179064e-02  6.6990229489825359e-02  7.2119463435746545e-02  7.7118572359234944e-02  8.1993624856304279e-02  8.6751183965909542e-02  9.1397946400492563e-02  9.5940516341251877e-02  1.0038526547007279e-01  1.0473824818313632e-01  1.0900515206545337e-01  1.1319127085787656e-01  1.1730149175814567e-01  1.2134029189900095e-01  1.2531174083894561e-01  1.2921950727075179e-01  1.3306686915247781e-01  1.3685672726879303e-01  1.4059162296586644e-01  1.4427376158154392e-01  1.4790504402767182e-01  1.5148711021152134e-01  1.5502139969771203e-01  1.5850923748752477e-01  1.6195195644489721e-01  1.6535107335701360e-01  1.6870854382266143e-01  1.7202713346966661e-01  1.7531096121518999e-01  1.7856629633685067e-01  1.8180272569188793e-01  1.8503484548623492e-01  1.8828465089681715e-01  1.9158472825749914e-01  1.9498203115755175e-01  1.9854112051944850e-01  2.0234389839743228e-01  2.0648043003292857e-01  2.1102541210107084e-01  2.1600321620459922e-01  1.7179092369182960e-08  4.6805540344987302e-03  9.5809907414185682e-03  1.4718801636581865e-02  2.0058178027015271e-02  2.5534733990130655e-02  3.1079073670303277e-02  3.6630802353440454e-02  4.2143558223660338e-02  4.7584758911898450e-02  5.2933198510877744e-02  5.8176254131054608e-02  6.3307437610323314e-02  6.8324486314767313e-02  7.3227960501250688e-02  7.8020246221724182e-02  8.2704859735397498e-02  8.7285967602510742e-02  9.1768057897572280e-02  9.6155716168732239e-02  1.0045347364958201e-01  1.0466570526700800e-01  1.0879656205865482e-01  1.1284992754109900e-01  1.1682939100844469e-01  1.2073823317288140e-01  1.2457942132941728e-01  1.2835561258435302e-01  1.3206916481440595e-01  1.3572215606580332e-01  1.3931641418866259e-01  1.4285355976272404e-01  1.4633506695811777e-01  1.4976234908360619e-01  1.5313687846347526e-01  1.5646035430152724e-01  1.5973493779048450e-01  1.6296358145089021e-01  1.6615049004878085e-01  1.6930176355013318e-01  1.7242628711675176e-01  1.7553694406438022e-01  1.7865222113029147e-01  1.8179821923409789e-01  1.8501091290016791e-01  1.8833811309010129e-01  1.9183987707910680e-01  1.9558516300067308e-01  1.9964206084881309e-01  2.0406061696441252e-01  2.0885256550350920e-01  1.1821759418740200e-08  4.4417496169669758e-03  9.0475895345001663e-03  1.3842885598714383e-02  1.8814833553939429e-02  2.3924872658606471e-02  2.9123616034973685e-02  3.4362258984704235e-02  3.9598835375609487e-02  4.4800377295864474e-02  4.9942674776028602e-02  5.5008975770323348e-02  5.9988420290728220e-02  6.4874587095989186e-02  6.9664287955617243e-02  7.4356625185081029e-02  7.8952280004479944e-02  8.3452986351457509e-02  8.7861146933490980e-02  9.2179555561098275e-02  9.6411197756463979e-02  1.0055910862568208e-01  1.0462627260109238e-01  1.0861555398448150e-01  1.1252965049332449e-01  1.1637106449114561e-01  1.2014208850004608e-01  1.2384480313953400e-01  1.2748108696840962e-01  1.3105263896019412e-01  1.3456101564147396e-01  1.3800768639184796e-01  1.4139411218142109e-01  1.4472185526561571e-01  1.4799273025060763e-01  1.5120901068291751e-01  1.5437371007028861e-01  1.5749096202692642e-01  1.6056653065249304e-01  1.6360848789863180e-01  1.6662809600106560e-01  1.6964092229481004e-01  1.7266817565019441e-01  1.7573816192461211e-01  1.7888757239988634e-01  1.8216201060051512e-01  1.8561475575723782e-01  1.8930246003027512e-01  1.9327678533417028e-01  1.9757255806778759e-01  2.0219586199411360e-01  8.5191129139297278e-09  4.2449614116104560e-03  8.6129045449134158e-03  1.3131146591529202e-02  1.7799587238637799e-02  2.2596816921975564e-02  2.7489254022470537e-02  3.2439515935217184e-02  3.7412181293604144e-02  4.2376829687583724e-02  4.7309060550775321e-02  5.2190310794992922e-02  5.7007102166622532e-02  6.1750110819761186e-02  6.6413265562042856e-02  7.0992963494203989e-02  7.5487427112028188e-02  7.9896195988319818e-02  8.4219734082206357e-02  8.8459131172598834e-02  9.2615878598217433e-02  9.6691702676117999e-02  1.0068844257655535e-01  1.0460796252668514e-01  1.0845209084531357e-01  1.1222258049117555e-01  1.1592108762134147e-01  1.1954916620819019e-01  1.2310827815874195e-01  1.2659981972105805e-01  1.3002516634806929e-01  1.3338573971813875e-01  1.3668310238249373e-01  1.3991908761686353e-01  1.4309597457183493e-01  1.4621672175692399e-01  1.4928527512434125e-01  1.5230697009314229e-01  1.5528904869896443e-01  1.5824131142552142e-01  1.6117691390014699e-01  1.6411329407008357e-01  1.6707316410768186e-01  1.7008540809487821e-01  1.7318557939550608e-01  1.7641549994442976e-01  1.7982129496497409e-01  1.8344921914622508e-01  1.8733910153035885e-01  1.9151632496925361e-01  1.9598467945834183e-01  6.3864048872989239e-09  4.0792872656738657e-03  8.2506489450906145e-03  1.2540734375492611e-02  1.6956275578778209e-02  2.1486974878456255e-02  2.6110997858557854e-02  3.0800809402149500e-02  3.5527872743622048e-02  4.0265714044955124e-02  4.4991506102637288e-02  4.9686584267321018e-02  5.4336313986476703e-02  5.8929630997666807e-02  6.3458462473780800e-02  6.7917147373249831e-02  7.2301913715678470e-02  7.6610434325510346e-02  8.0841463137528671e-02  8.4994544997623808e-02  8.9069788543059983e-02  9.3067691415870679e-02  9.6989008138901434e-02  1.0083465259850589e-01  1.0460562880130182e-01  1.0830298521964818e-01  1.1192778955694949e-01  1.1548112216085445e-01  1.1896408763296767e-01  1.2237784548441853e-01  1.2572366202831065e-01  1.2900298714050090e-01  1.3221756110554703e-01  1.3536955851373886e-01  1.3846177804904752e-01  1.4149788885466433e-01  1.4448274561927582e-01  1.4742278485453050e-01  1.5032651266101810e-01  1.5320508724129514e-01  1.5607298374190456e-01  1.5894869928011429e-01  1.6185540576098773e-01  1.6482138247997347e-01  1.6787996321788679e-01  1.7106863849977313e-01  1.7442692483055394e-01  1.7799275157761146e-01  1.8179752563365847e-01  1.8586070661197071e-01  1.9018541293978866e-01  4.9545067714198588e-09  3.9375408965408986e-03  7.9435274775111562e-03  1.2042847877081361e-02  1.6245710032433965e-02  2.0548890521133404e-02  2.4938997001029001e-02  2.9396426016909106e-02  3.3898961790981681e-02  3.8424479198839102e-02  4.2952654479466716e-02  4.7465838596028861e-02  5.1949333116175000e-02  5.6391295084831802e-02  6.0782444753831523e-02  6.5115693111514231e-02  6.9385759725966778e-02  7.3588818675571363e-02  7.7722189457915647e-02  8.1784077560570365e-02  8.5773362911421042e-02  8.9689431493770413e-02  9.3532044520620722e-02  9.7301239776915169e-02  1.0099726050508073e-01  1.0462050822170851e-01  1.0817151695645233e-01  1.1165094753180227e-01  1.1505960163762961e-01  1.1839845660585335e-01  1.2166872297559252e-01  1.2487192817015985e-01  1.2801003087606050e-01  1.3108557196938234e-01  1.3410186894644735e-01  1.3706326151777576e-01  1.3997541583015852e-01  1.4284569285907026e-01  1.4568358153091104e-01  1.4850118710957663e-01  1.5131374765137592e-01  1.5414012290020024e-01  1.5700315874375104e-01  1.5992977781402848e-01  1.6295059304469850e-01  1.6609881077196406e-01  1.6940822606442429e-01  1.7291026698597828e-01  1.7663034386100696e-01  1.8058415314110640e-01  1.8477490861847107e-01  3.9608969847102737e-09  3.8148124231367070e-03  7.6797669109592674e-03  1.1617614589729292e-02  1.5640116623115277e-02  1.9748470107756936e-02  2.3935221812718458e-02  2.8186909418122384e-02  3.2486720004199512e-02  3.6816711373383888e-02  4.1159414286001943e-02  4.5498829265491356e-02  4.9820931821002085e-02  5.4113827481658119e-02  5.8367684784438663e-02  6.2574545259611550e-02  6.6728079093635637e-02  7.0823329940300342e-02  7.4856473885255653e-02  7.8824605181419843e-02  8.2725553667858512e-02  8.6557734369999001e-02  9.0320027532130906e-02  9.4011686444078091e-02  9.7632270348974620e-02  1.0118160011322938e-01  1.0465973499532828e-01  1.0806696964898027e-01  1.1140385137483831e-01  1.1467121856015140e-01  1.1787026219432610e-01  1.2100261329118159e-01  1.2407045993107121e-01  1.2707669835373389e-01  1.3002512289837820e-01  1.3292065928374514e-01  1.3576964424044913e-01  1.3858015108453042e-01  1.4136235437572153e-01  1.4412891595923494e-01  1.4689535796780104e-01  1.4968036475087670e-01  1.5250592585499553e-01  1.5539720044037075e-01  1.5838196051257836e-01  1.6148947487398166e-01  1.6474875280550366e-01  1.6818619741445531e-01  1.7182292058965776e-01  1.7567219512629112e-01  1.7973766639469449e-01  3.2515799210040311e-09  3.7076587686840634e-03  7.4511409571342670e-03  1.1251022373759419e-02  1.5119521242644500e-02  1.9060524128959040e-02  2.3070689128319975e-02  2.7141190210794308e-02  3.1259638112450069e-02  3.5411830353721307e-02  3.9583141809873990e-02  4.3759503905498667e-02  4.7928008512461921e-02  5.2077213696209108e-02  5.6197236558710402e-02  6.0279708591993462e-02  6.4317652310607279e-02  6.8305320984637180e-02  7.2238029022540687e-02  7.6111989781918285e-02  7.9924170075338030e-02  8.3672165749364591e-02  8.7354099761676518e-02  9.0968542576317202e-02  9.4514453992054159e-02  9.7991145394217674e-02  1.0139826166012622e-01  1.0473578241057403e-01  1.0800404289264771e-01  1.1120377543811806e-01  1.1433617311270991e-01  1.1740297779319836e-01  1.2040659539432687e-01  1.2335024118121028e-01  1.2623811783604280e-01  1.2907562788602228e-01  1.3186961979064887e-01  1.3462866282276675e-01  1.3736333911369078e-01  1.4008653109571154e-01  1.4281366854255323e-01  1.4556288175578933e-01  1.4835498813993475e-01  1.5121322327380232e-01  1.5416262329114255e-01  1.5722898520617246e-01  1.6043738851945527e-01  1.6381036088803555e-01  1.6736590124628850e-01  1.7111569863316409e-01  1.7506394792329258e-01  2.7323299181648323e-09  3.6136216003766169e-03  7.2517897340557240e-03  1.0933021126139539e-02  1.4669377728326365e-02  1.8466311900382525e-02  2.2323284716488229e-02  2.6234908634742080e-02  3.0192315614547154e-02  3.4184499004330224e-02  3.8199465572600934e-02  4.2225123369600638e-02  4.6249898943886474e-02  5.0263117830316388e-02  5.4255199329487074e-02  5.8217718147507681e-02  6.2143378727293391e-02  6.6025938294008518e-02  6.9860104831946671e-02  7.3641427863113090e-02  7.7366193454583218e-02  8.1031330258136511e-02  8.4634330278104769e-02  8.8173186121151853e-02  9.1646345387880218e-02  9.5052682365257921e-02  9.8391487078062237e-02  1.0166247191583884e-01  1.0486579636573422e-01  1.0800211076966182e-01  1.1107262041284149e-01  1.1407917155864432e-01  1.1702436116785662e-01  1.1991167183500781e-01  1.2274563273897550e-01  1.2553200586501145e-01  1.2827799405555868e-01  1.3099246316697147e-01  1.3368616432227226e-01  1.3637193366513642e-01  1.3906483624439817e-01  1.4178220861459004e-01  1.4454354371293385e-01  1.4737015573512569e-01  1.5028456823032438e-01  1.5330959263633923e-01  1.5646711245029388e-01  1.5977665940118052e-01  1.6325395040719859e-01  1.6690962294646772e-01  1.7074843033951642e-01  2.3431894351801394e-09  3.5309260522247829e-03  7.0774831820036369e-03  1.0656310773827532e-02  1.4278986901587885e-02  1.7951805165416557e-02  2.1676104654126793e-02  2.5449012403391282e-02  2.9264408040911231e-02  3.3113934094346986e-02  3.6987921670100898e-02  4.0876156788815517e-02  4.4768461074379706e-02  4.8655094351965557e-02  5.2527005590319434e-02  5.6375965732943512e-02  6.0194615465910720e-02  6.3976456488334138e-02  6.7715808938373895e-02  7.1407751802977371e-02  7.5048058145600505e-02  7.8633133068461911e-02  8.2159959456895110e-02  8.5626054582162811e-02  8.9029439379117711e-02  9.2368621488252298e-02  9.5642592805947876e-02  9.8850842198460603e-02  1.0199338410406449e-01  1.0507080388794074e-01  1.0808432094438711e-01  1.1103587057223446e-01  1.1392820547542348e-01  1.1676501722565726e-01  1.1955107699365838e-01  1.2229239309428890e-01  1.2499638015061357e-01  1.2767203071576602e-01  1.3033007482551467e-01  1.3298310621997467e-01  1.3564564631076584e-01  1.3833410949951733e-01  1.4106662824702804e-01  1.4386269650207276e-01  1.4674259967849390e-01  1.4972662206970383e-01  1.5283406004327255e-01  1.5608211855466400e-01  1.5948481979675602e-01  1.6305209029786608e-01  1.6678919907314535e-01  2.0445197235616067e-09  3.4582842892407640e-03  6.9251435158402923e-03  1.0415543912949835e-02  1.3940423147907680e-02  1.7506454766320196e-02  2.1116208289440590e-02  2.4768626765320958e-02  2.8459701592543549e-02  3.2183223433010874e-02  3.5931510553944737e-02  3.9696049059587138e-02  4.3468012205953366e-02  4.723865193964005