<?xml version="1.0"?>
<VTKFile type="UnstructuredGrid"  version="0.1"  >
<UnstructuredGrid>
<Piece  NumberOfPoints="2601" NumberOfCells="5000">
<Points>
<DataArray  type="Float64"  NumberOfComponents="3"  format="ascii">0 0 0  0.02 0 0  0.04 0 0  0.06 0 0  0.08 0 0  0.1 0 0  0.12 0 0  0.14 0 0  0.16 0 0  0.18 0 0  0.2 0 0  0.22 0 0  0.24 0 0  0.26 0 0  0.28 0 0  0.3 0 0  0.32 0 0  0.34 0 0  0.36 0 0  0.38 0 0  0.4 0 0  0.42 0 0  0.44 0 0  0.46 0 0  0.48 0 0  0.5 0 0  0.52 0 0  0.54 0 0  0.5600000000000001 0 0  0.58 0 0  0.6 0 0  0.62 0 0  0.64 0 0  0.66 0 0  0.68 0 0  0.7 0 0  0.72 0 0  0.74 0 0  0.76 0 0  0.78 0 0  0.8 0 0  0.82 0 0  0.84 0 0  0.86 0 0  0.88 0 0  0.9 0 0  0.92 0 0  0.9399999999999999 0 0  0.96 0 0  0.98 0 0  1 0 0  0 0.02 0  0.02 0.02 0  0.04 0.02 0  0.06 0.02 0  0.08 0.02 0  0.1 0.02 0  0.12 0.02 0  0.14 0.02 0  0.16 0.02 0  0.18 0.02 0  0.2 0.02 0  0.22 0.02 0  0.24 0.02 0  0.26 0.02 0  0.28 0.02 0  0.3 0.02 0  0.32 0.02 0  0.34 0.02 0  0.36 0.02 0  0.38 0.02 0  0.4 0.02 0  0.42 0.02 0  0.44 0.02 0  0.46 0.02 0  0.48 0.02 0  0.5 0.02 0  0.52 0.02 0  0.54 0.02 0  0.5600000000000001 0.02 0  0.58 0.02 0  0.6 0.02 0  0.62 0.02 0  0.64 0.02 0  0.66 0.02 0  0.68 0.02 0  0.7 0.02 0  0.72 0.02 0  0.74 0.02 0  0.76 0.02 0  0.78 0.02 0  0.8 0.02 0  0.82 0.02 0  0.84 0.02 0  0.86 0.02 0  0.88 0.02 0  0.9 0.02 0  0.92 0.02 0  0.9399999999999999 0.02 0  0.96 0.02 0  0.98 0.02 0  1 0.02 0  0 0.04 0  0.02 0.04 0  0.04 0.04 0  0.06 0.04 0  0.08 0.04 0  0.1 0.04 0  0.12 0.04 0  0.14 0.04 0  0.16 0.04 0  0.18 0.04 0  0.2 0.04 0  0.22 0.04 0  0.24 0.04 0  0.26 0.04 0  0.28 0.04 0  0.3 0.04 0  0.32 0.04 0  0.34 0.04 0  0.36 0.04 0  0.38 0.04 0  0.4 0.04 0  0.42 0.04 0  0.44 0.04 0  0.46 0.04 0  0.48 0.04 0  0.5 0.04 0  0.52 0.04 0  0.54 0.04 0  0.5600000000000001 0.04 0  0.58 0.04 0  0.6 0.04 0  0.62 0.04 0  0.64 0.04 0  0.66 0.04 0  0.68 0.04 0  0.7 0.04 0  0.72 0.04 0  0.74 0.04 0  0.76 0.04 0  0.78 0.04 0  0.8 0.04 0  0.82 0.04 0  0.84 0.04 0  0.86 0.04 0  0.88 0.04 0  0.9 0.04 0  0.92 0.04 0  0.9399999999999999 0.04 0  0.96 0.04 0  0.98 0.04 0  1 0.04 0  0 0.06 0  0.02 0.06 0  0.04 0.06 0  0.06 0.06 0  0.08 0.06 0  0.1 0.06 0  0.12 0.06 0  0.14 0.06 0  0.16 0.06 0  0.18 0.06 0  0.2 0.06 0  0.22 0.06 0  0.24 0.06 0  0.26 0.06 0  0.28 0.06 0  0.3 0.06 0  0.32 0.06 0  0.34 0.06 0  0.36 0.06 0  0.38 0.06 0  0.4 0.06 0  0.42 0.06 0  0.44 0.06 0  0.46 0.06 0  0.48 0.06 0  0.5 0.06 0  0.52 0.06 0  0.54 0.06 0  0.5600000000000001 0.06 0  0.58 0.06 0  0.6 0.06 0  0.62 0.06 0  0.64 0.06 0  0.66 0.06 0  0.68 0.06 0  0.7 0.06 0  0.72 0.06 0  0.74 0.06 0  0.76 0.06 0  0.78 0.06 0  0.8 0.06 0  0.82 0.06 0  0.84 0.06 0  0.86 0.06 0  0.88 0.06 0  0.9 0.06 0  0.92 0.06 0  0.9399999999999999 0.06 0  0.96 0.06 0  0.98 0.06 0  1 0.06 0  0 0.08 0  0.02 0.08 0  0.04 0.08 0  0.06 0.08 0  0.08 0.08 0  0.1 0.08 0  0.12 0.08 0  0.14 0.08 0  0.16 0.08 0  0.18 0.08 0  0.2 0.08 0  0.22 0.08 0  0.24 0.08 0  0.26 0.08 0  0.28 0.08 0  0.3 0.08 0  0.32 0.08 0  0.34 0.08 0  0.36 0.08 0  0.38 0.08 0  0.4 0.08 0  0.42 0.08 0  0.44 0.08 0  0.46 0.08 0  0.48 0.08 0  0.5 0.08 0  0.52 0.08 0  0.54 0.08 0  0.5600000000000001 0.08 0  0.58 0.08 0  0.6 0.08 0  0.62 0.08 0  0.64 0.08 0  0.66 0.08 0  0.68 0.08 0  0.7 0.08 0  0.72 0.08 0  0.74 0.08 0  0.76 0.08 0  0.78 0.08 0  0.8 0.08 0  0.82 0.08 0  0.84 0.08 0  0.86 0.08 0  0.88 0.08 0  0.9 0.08 0  0.92 0.08 0  0.9399999999999999 0.08 0  0.96 0.08 0  0.98 0.08 0  1 0.08 0  0 0.1 0  0.02 0.1 0  0.04 0.1 0  0.06 0.1 0  0.08 0.1 0  0.1 0.1 0  0.12 0.1 0  0.14 0.1 0  0.16 0.1 0  0.18 0.1 0  0.2 0.1 0  0.22 0.1 0  0.24 0.1 0  0.26 0.1 0  0.28 0.1 0  0.3 0.1 0  0.32 0.1 0  0.34 0.1 0  0.36 0.1 0  0.38 0.1 0  0.4 0.1 0  0.42 0.1 0  0.44 0.1 0  0.46 0.1 0  0.48 0.1 0  0.5 0.1 0  0.52 0.1 0  0.54 0.1 0  0.5600000000000001 0.1 0  0.58 0.1 0  0.6 0.1 0  0.62 0.1 0  0.64 0.1 0  0.66 0.1 0  0.68 0.1 0  0.7 0.1 0  0.72 0.1 0  0.74 0.1 0  0.76 0.1 0  0.78 0.1 0  0.8 0.1 0  0.82 0.1 0  0.84 0.1 0  0.86 0.1 0  0.88 0.1 0  0.9 0.1 0  0.92 0.1 0  0.9399999999999999 0.1 0  0.96 0.1 0  0.98 0.1 0  1 0.1 0  0 0.12 0  0.02 0.12 0  0.04 0.12 0  0.06 0.12 0  0.08 0.12 0  0.1 0.12 0  0.12 0.12 0  0.14 0.12 0  0.16 0.12 0  0.18 0.12 0  0.2 0.12 0  0.22 0.12 0  0.24 0.12 0  0.26 0.12 0  0.28 0.12 0  0.3 0.12 0  0.32 0.12 0  0.34 0.12 0  0.36 0.12 0  0.38 0.12 0  0.4 0.12 0  0.42 0.12 0  0.44 0.12 0  0.46 0.12 0  0.48 0.12 0  0.5 0.12 0  0.52 0.12 0  0.54 0.12 0  0.5600000000000001 0.12 0  0.58 0.12 0  0.6 0.12 0  0.62 0.12 0  0.64 0.12 0  0.66 0.12 0  0.68 0.12 0  0.7 0.12 0  0.72 0.12 0  0.74 0.12 0  0.76 0.12 0  0.78 0.12 0  0.8 0.12 0  0.82 0.12 0  0.84 0.12 0  0.86 0.12 0  0.88 0.12 0  0.9 0.12 0  0.92 0.12 0  0.9399999999999999 0.12 0  0.96 0.12 0  0.98 0.12 0  1 0.12 0  0 0.14 0  0.02 0.14 0  0.04 0.14 0  0.06 0.14 0  0.08 0.14 0  0.1 0.14 0  0.12 0.14 0  0.14 0.14 0  0.16 0.14 0  0.18 0.14 0  0.2 0.14 0  0.22 0.14 0  0.24 0.14 0  0.26 0.14 0  0.28 0.14 0  0.3 0.14 0  0.32 0.14 0  0.34 0.14 0  0.36 0.14 0  0.38 0.14 0  0.4 0.14 0  0.42 0.14 0  0.44 0.14 0  0.46 0.14 0  0.48 0.14 0  0.5 0.14 0  0.52 0.14 0  0.54 0.14 0  0.5600000000000001 0.14 0  0.58 0.14 0  0.6 0.14 0  0.62 0.14 0  0.64 0.14 0  0.66 0.14 0  0.68 0.14 0  0.7 0.14 0  0.72 0.14 0  0.74 0.14 0  0.76 0.14 0  0.78 0.14 0  0.8 0.14 0  0.82 0.14 0  0.84 0.14 0  0.86 0.14 0  0.88 0.14 0  0.9 0.14 0  0.92 0.14 0  0.9399999999999999 0.14 0  0.96 0.14 0  0.98 0.14 0  1 0.14 0  0 0.16 0  0.02 0.16 0  0.04 0.16 0  0.06 0.16 0  0.08 0.16 0  0.1 0.16 0  0.12 0.16 0  0.14 0.16 0  0.16 0.16 0  0.18 0.16 0  0.2 0.16 0  0.22 0.16 0  0.24 0.16 0  0.26 0.16 0  0.28 0.16 0  0.3 0.16 0  0.32 0.16 0  0.34 0.16 0  0.36 0.16 0  0.38 0.16 0  0.4 0.16 0  0.42 0.16 0  0.44 0.16 0  0.46 0.16 0  0.48 0.16 0  0.5 0.16 0  0.52 0.16 0  0.54 0.16 0  0.5600000000000001 0.16 0  0.58 0.16 0  0.6 0.16 0  0.62 0.16 0  0.64 0.16 0  0.66 0.16 0  0.68 0.16 0  0.7 0.16 0  0.72 0.16 0  0.74 0.16 0  0.76 0.16 0  0.78 0.16 0  0.8 0.16 0  0.82 0.16 0  0.84 0.16 0  0.86 0.16 0  0.88 0.16 0  0.9 0.16 0  0.92 0.16 0  0.9399999999999999 0.16 0  0.96 0.16 0  0.98 0.16 0  1 0.16 0  0 0.18 0  0.02 0.18 0  0.04 0.18 0  0.06 0.18 0  0.08 0.18 0  0.1 0.18 0  0.12 0.18 0  0.14 0.18 0  0.16 0.18 0  0.18 0.18 0  0.2 0.18 0  0.22 0.18 0  0.24 0.18 0  0.26 0.18 0  0.28 0.18 0  0.3 0.18 0  0.32 0.18 0  0.34 0.18 0  0.36 0.18 0  0.38 0.18 0  0.4 0.18 0  0.42 0.18 0  0.44 0.18 0  0.46 0.18 0  0.48 0.18 0  0.5 0.18 0  0.52 0.18 0  0.54 0.18 0  0.5600000000000001 0.18 0  0.58 0.18 0  0.6 0.18 0  0.62 0.18 0  0.64 0.18 0  0.66 0.18 0  0.68 0.18 0  0.7 0.18 0  0.72 0.18 0  0.74 0.18 0  0.76 0.18 0  0.78 0.18 0  0.8 0.18 0  0.82 0.18 0  0.84 0.18 0  0.86 0.18 0  0.88 0.18 0  0.9 0.18 0  0.92 0.18 0  0.9399999999999999 0.18 0  0.96 0.18 0  0.98 0.18 0  1 0.18 0  0 0.2 0  0.02 0.2 0  0.04 0.2 0  0.06 0.2 0  0.08 0.2 0  0.1 0.2 0  0.12 0.2 0  0.14 0.2 0  0.16 0.2 0  0.18 0.2 0  0.2 0.2 0  0.22 0.2 0  0.24 0.2 0  0.26 0.2 0  0.28 0.2 0  0.3 0.2 0  0.32 0.2 0  0.34 0.2 0  0.36 0.2 0  0.38 0.2 0  0.4 0.2 0  0.42 0.2 0  0.44 0.2 0  0.46 0.2 0  0.48 0.2 0  0.5 0.2 0  0.52 0.2 0  0.54 0.2 0  0.5600000000000001 0.2 0  0.58 0.2 0  0.6 0.2 0  0.62 0.2 0  0.64 0.2 0  0.66 0.2 0  0.68 0.2 0  0.7 0.2 0  0.72 0.2 0  0.74 0.2 0  0.76 0.2 0  0.78 0.2 0  0.8 0.2 0  0.82 0.2 0  0.84 0.2 0  0.86 0.2 0  0.88 0.2 0  0.9 0.2 0  0.92 0.2 0  0.9399999999999999 0.2 0  0.96 0.2 0  0.98 0.2 0  1 0.2 0  0 0.22 0  0.02 0.22 0  0.04 0.22 0  0.06 0.22 0  0.08 0.22 0  0.1 0.22 0  0.12 0.22 0  0.14 0.22 0  0.16 0.22 0  0.18 0.22 0  0.2 0.22 0  0.22 0.22 0  0.24 0.22 0  0.26 0.22 0  0.28 0.22 0  0.3 0.22 0  0.32 0.22 0  0.34 0.22 0  0.36 0.22 0  0.38 0.22 0  0.4 0.22 0  0.42 0.22 0  0.44 0.22 0  0.46 0.22 0  0.48 0.22 0  0.5 0.22 0  0.52 0.22 0  0.54 0.22 0  0.5600000000000001 0.22 0  0.58 0.22 0  0.6 0.22 0  0.62 0.22 0  0.64 0.22 0  0.66 0.22 0  0.68 0.22 0  0.7 0.22 0  0.72 0.22 0  0.74 0.22 0  0.76 0.22 0  0.78 0.22 0  0.8 0.22 0  0.82 0.22 0  0.84 0.22 0  0.86 0.22 0  0.88 0.22 0  0.9 0.22 0  0.92 0.22 0  0.9399999999999999 0.22 0  0.96 0.22 0  0.98 0.22 0  1 0.22 0  0 0.24 0  0.02 0.24 0  0.04 0.24 0  0.06 0.24 0  0.08 0.24 0  0.1 0.24 0  0.12 0.24 0  0.14 0.24 0  0.16 0.24 0  0.18 0.24 0  0.2 0.24 0  0.22 0.24 0  0.24 0.24 0  0.26 0.24 0  0.28 0.24 0  0.3 0.24 0  0.32 0.24 0  0.34 0.24 0  0.36 0.24 0  0.38 0.24 0  0.4 0.24 0  0.42 0.24 0  0.44 0.24 0  0.46 0.24 0  0.48 0.24 0  0.5 0.24 0  0.52 0.24 0  0.54 0.24 0  0.5600000000000001 0.24 0  0.58 0.24 0  0.6 0.24 0  0.62 0.24 0  0.64 0.24 0  0.66 0.24 0  0.68 0.24 0  0.7 0.24 0  0.72 0.24 0  0.74 0.24 0  0.76 0.24 0  0.78 0.24 0  0.8 0.24 0  0.82 0.24 0  0.84 0.24 0  0.86 0.24 0  0.88 0.24 0  0.9 0.24 0  0.92 0.24 0  0.9399999999999999 0.24 0  0.96 0.24 0  0.98 0.24 0  1 0.24 0  0 0.26 0  0.02 0.26 0  0.04 0.26 0  0.06 0.26 0  0.08 0.26 0  0.1 0.26 0  0.12 0.26 0  0.14 0.26 0  0.16 0.26 0  0.18 0.26 0  0.2 0.26 0  0.22 0.26 0  0.24 0.26 0  0.26 0.26 0  0.28 0.26 0  0.3 0.26 0  0.32 0.26 0  0.34 0.26 0  0.36 0.26 0  0.38 0.26 0  0.4 0.26 0  0.42 0.26 0  0.44 0.26 0  0.46 0.26 0  0.48 0.26 0  0.5 0.26 0  0.52 0.26 0  0.54 0.26 0  0.5600000000000001 0.26 0  0.58 0.26 0  0.6 0.26 0  0.62 0.26 0  0.64 0.26 0  0.66 0.26 0  0.68 0.26 0  0.7 0.26 0  0.72 0.26 0  0.74 0.26 0  0.76 0.26 0  0.78 0.26 0  0.8 0.26 0  0.82 0.26 0  0.84 0.26 0  0.86 0.26 0  0.88 0.26 0  0.9 0.26 0  0.92 0.26 0  0.9399999999999999 0.26 0  0.96 0.26 0  0.98 0.26 0  1 0.26 0  0 0.28 0  0.02 0.28 0  0.04 0.28 0  0.06 0.28 0  0.08 0.28 0  0.1 0.28 0  0.12 0.28 0  0.14 0.28 0  0.16 0.28 0  0.18 0.28 0  0.2 0.28 0  0.22 0.28 0  0.24 0.28 0  0.26 0.28 0  0.28 0.28 0  0.3 0.28 0  0.32 0.28 0  0.34 0.28 0  0.36 0.28 0  0.38 0.28 0  0.4 0.28 0  0.42 0.28 0  0.44 0.28 0  0.46 0.28 0  0.48 0.28 0  0.5 0.28 0  0.52 0.28 0  0.54 0.28 0  0.5600000000000001 0.28 0  0.58 0.28 0  0.6 0.28 0  0.62 0.28 0  0.64 0.28 0  0.66 0.28 0  0.68 0.28 0  0.7 0.28 0  0.72 0.28 0  0.74 0.28 0  0.76 0.28 0  0.78 0.28 0  0.8 0.28 0  0.82 0.28 0  0.84 0.28 0  0.86 0.28
[...]
<PointData  Vectors="f_792"> 
<DataArray  type="Float64"  Name="f_792"  NumberOfComponents="3" format="ascii">0.0000000000000000e+00 0.0000000000000000e+00 0.0000000000000000e+00  2.4629195123347164e-03 2.2864881222276153e-03 0.0000000000000000e+00  4.0096857676716630e-03 3.7031879928648586e-03 0.0000000000000000e+00  5.3466618668268342e-03 4.8561592003899100e-03 0.0000000000000000e+00  6.5657477471417541e-03 5.8461445436965116e-03 0.0000000000000000e+00  7.7108802543058297e-03 6.7148594686049145e-03 0.0000000000000000e+00  8.8055003215420577e-03 7.4871672938831707e-03 0.0000000000000000e+00  9.8639076477486168e-03 8.1796610134259786e-03 0.0000000000000000e+00  1.0895488053168659e-02 8.8043656578162786e-03 0.0000000000000000e+00  1.1906672739822963e-02 9.3704934526072630e-03 0.0000000000000000e+00  1.2901970097031401e-02 9.8853804556503638e-03 0.0000000000000000e+00  1.3884559893431389e-02 1.0355030855012831e-02 0.0000000000000000e+00  1.4856658834216023e-02 1.0784454038356378e-02 0.0000000000000000e+00  1.5819757258462623e-02 1.1177883599771055e-02 0.0000000000000000e+00  1.6774778781517556e-02 1.1538924875604087e-02 0.0000000000000000e+00  1.7722191612229057e-02 1.1870656979431208e-02 0.0000000000000000e+00  1.8662088357859982e-02 1.2175704589213994e-02 0.0000000000000000e+00  1.9594244610966909e-02 1.2456288838859544e-02 0.0000000000000000e+00  2.0518162873392459e-02 1.2714263256797628e-02 0.0000000000000000e+00  2.1433106140930660e-02 1.2951138641671685e-02 0.0000000000000000e+00  2.2338124095708616e-02 1.3168099485463139e-02 0.0000000000000000e+00  2.3232073981184802e-02 1.3366013731918387e-02 0.0000000000000000e+00  2.4113637670737268e-02 1.3545437115881378e-02 0.0000000000000000e+00  2.4981336071543951e-02 1.3706612964109337e-02 0.0000000000000000e+00  2.5833541763162340e-02 1.3849468088856171e-02 0.0000000000000000e+00  2.6668490613606703e-02 1.3973605234349162e-02 0.0000000000000000e+00  2.7484293019171154e-02 1.4078292420030626e-02 0.0000000000000000e+00  2.8278945361746164e-02 1.4162449448753476e-02 0.0000000000000000e+00  2.9050342259039803e-02 1.4224631804516587e-02 0.0000000000000000e+00  2.9796290193109524e-02 1.4263012148379170e-02 0.0000000000000000e+00  3.0514523137964385e-02 1.4275359631654447e-02 0.0000000000000000e+00  3.1202720866900138e-02 1.4259017283894088e-02 0.0000000000000000e+00  3.1858530705702423e-02 1.4210877804022661e-02 0.0000000000000000e+00  3.2479593611609549e-02 1.4127358194232761e-02 0.0000000000000000e+00  3.3063575604471686e-02 1.4004373840521960e-02 0.0000000000000000e+00  3.3608205762391187e-02 1.3837312880264145e-02 0.0000000000000000e+00  3.4111322228177872e-02 1.3621012035040110e-02 0.0000000000000000e+00  3.4570927966941556e-02 1.3349735570418325e-02 0.0000000000000000e+00  3.4985258384135395e-02 1.3017159742031133e-02 0.0000000000000000e+00  3.5352863375738362e-02 1.2616366107426778e-02 0.0000000000000000e+00  3.5672706958489633e-02 1.2139848601214996e-02 0.0000000000000000e+00  3.5944288335340059e-02 1.1579541579631402e-02 0.0000000000000000e+00  3.6167789086970999e-02 1.0926879645131260e-02 0.0000000000000000e+00  3.6344252074110461e-02 1.0172905869625399e-02 0.0000000000000000e+00  3.6475798310703557e-02 9.3084547538459447e-03 0.0000000000000000e+00  3.6565887620966214e-02 8.3244532790213016e-03 0.0000000000000000e+00  3.6619624417900620e-02 7.2124148800073850e-03 0.0000000000000000e+00  3.6644091509937429e-02 5.9652632115037582e-03 0.0000000000000000e+00  3.6648624303254169e-02 4.5787527837364552e-03 0.0000000000000000e+00  3.6644653436201241e-02 3.0540366026704240e-03 0.0000000000000000e+00  3.6642896758892582e-02 1.4021000944169091e-03 0.0000000000000000e+00  0.0000000000000000e+00 0.0000000000000000e+00 0.0000000000000000e+00  1.4794266885369053e-03 1.6154084866533108e-03 0.0000000000000000e+00  3.0227516691973297e-03 3.0890145436131711e-03 0.0000000000000000e+00  4.4363286447386486e-03 4.2975599269204894e-03 0.0000000000000000e+00  5.7387173006679853e-03 5.3258137256866987e-03 0.0000000000000000e+00  6.9605405548971650e-03 6.2214578248531612e-03 0.0000000000000000e+00  8.1236588005092498e-03 7.0133106263950374e-03 0.0000000000000000e+00  9.2430136845077417e-03 7.7203915054298421e-03 0.0000000000000000e+00  1.0328966455576410e-02 8.3562465438929145e-03 0.0000000000000000e+00  1.1388860958061768e-02 8.9310880126857884e-03 0.0000000000000000e+00  1.2427987707622264e-02 9.4529411493537337e-03 0.0000000000000000e+00  1.3450186465934688e-02 9.9283054407181687e-03 0.0000000000000000e+00  1.4458234841663805e-02 1.0362559552816338e-02 0.0000000000000000e+00  1.5454107341652921e-02 1.0760221428694091e-02 0.0000000000000000e+00  1.6439153456501820e-02 1.1125121703085224e-02 0.0000000000000000e+00  1.7414223507380550e-02 1.1460522608998205e-02 0.0000000000000000e+00  1.8379759789440130e-02 1.1769201097142367e-02 0.0000000000000000e+00  1.9335864060592026e-02 1.2053507533343765e-02 0.0000000000000000e+00  2.0282348551178470e-02 1.2315407125474048e-02 0.0000000000000000e+00  2.1218775290767860e-02 1.2556508718096087e-02 0.0000000000000000e+00  2.2144487048780449e-02 1.2778084040115417e-02 0.0000000000000000e+00  2.3058632219359890e-02 1.2981079501245059e-02 0.0000000000000000e+00  2.3960185346869049e-02 1.3166121985623754e-02 0.0000000000000000e+00  2.4847964566986808e-02 1.3333519657735438e-02 0.0000000000000000e+00  2.5720646956687958e-02 1.3483258501006949e-02 0.0000000000000000e+00  2.6576782599023730e-02 1.3614995107004323e-02 0.0000000000000000e+00  2.7414808046826569e-02 1.3728046094574120e-02 0.0000000000000000e+00  2.8233059794798121e-02 1.3821374445985444e-02 0.0000000000000000e+00  2.9029788329963582e-02 1.3893572990508984e-02 0.0000000000000000e+00  2.9803173318507195e-02 1.3942845239093291e-02 0.0000000000000000e+00  3.0551340497631974e-02 1.3966983774612036e-02 0.0000000000000000e+00  3.1272380871291673e-02 1.3963346431386140e-02 0.0000000000000000e+00  3.1964372856625241e-02 1.3928830559241061e-02 0.0000000000000000e+00  3.2625408092611739e-02 1.3859845768754767e-02 0.0000000000000000e+00  3.3253621703007941e-02 1.3752285707824703e-02 0.0000000000000000e+00  3.3847227900744438e-02 1.3601499644184152e-02 0.0000000000000000e+00  3.4404561927892909e-02 1.3402264953037422e-02 0.0000000000000000e+00  3.4924129438071029e-02 1.3148762078200106e-02 0.0000000000000000e+00  3.5404664534152717e-02 1.2834554218778986e-02 0.0000000000000000e+00  3.5845197748053011e-02 1.2452575002844440e-02 0.0000000000000000e+00  3.6245135241023553e-02 1.1995128927129785e-02 0.0000000000000000e+00  3.6604350313971017e-02 1.1453911675621988e-02 0.0000000000000000e+00  3.6923287754312945e-02 1.0820061118951839e-02 0.0000000000000000e+00  3.7203080225702297e-02 1.0084255822124097e-02 0.0000000000000000e+00  3.7445673066317964e-02 9.2368881195825300e-03 0.0000000000000000e+00  3.7653947991951264e-02 8.2683569934112553e-03 0.0000000000000000e+00  3.7831824496875957e-02 7.1695599667029979e-03 0.0000000000000000e+00  3.7984296345369421e-02 5.9327300431657511e-03 0.0000000000000000e+00  3.8117333945860761e-02 4.5528989273887705e-03 0.0000000000000000e+00  3.8237645195661363e-02 3.0305093937242791e-03 0.0000000000000000e+00  3.8352933177980726e-02 1.3758571968039374e-03 0.0000000000000000e+00  0.0000000000000000e+00 0.0000000000000000e+00 0.0000000000000000e+00  1.1904384999575066e-03 1.2789799991259592e-03 0.0000000000000000e+00  2.5015091049792634e-03 2.5928638820055753e-03 0.0000000000000000e+00  3.8297330146276811e-03 3.7764440957037946e-03 0.0000000000000000e+00  5.1186491189694752e-03 4.8125415206015281e-03 0.0000000000000000e+00  6.3575970879925199e-03 5.7225775281732321e-03 0.0000000000000000e+00  7.5505900740462407e-03 6.5285784621171069e-03 0.0000000000000000e+00  8.7046976453585730e-03 7.2479862582383583e-03 0.0000000000000000e+00  9.8266633176682088e-03 7.8942103076096899e-03 0.0000000000000000e+00  1.0922124659217214e-02 8.4777104912024948e-03 0.0000000000000000e+00  1.1995577515676079e-02 9.0068331280426898e-03 0.0000000000000000e+00  1.3050525633747747e-02 9.4883816859418994e-03 0.0000000000000000e+00  1.4089651991760837e-02 9.9279995997997601e-03 0.0000000000000000e+00  1.5114968421595598e-02 1.0330429583143683e-02 0.0000000000000000e+00  1.6127936392122254e-02 1.0699692234533553e-02 0.0000000000000000e+00  1.7129561983576309e-02 1.1039211073238299e-02 0.0000000000000000e+00  1.8120470117833534e-02 1.1351901172854085e-02 0.0000000000000000e+00  1.9100962766345049e-02 1.1640232399741572e-02 0.0000000000000000e+00  2.0071064974243522e-02 1.1906274441037758e-02 0.0000000000000000e+00  2.1030561675988192e-02 1.2151728400784625e-02 0.0000000000000000e+00  2.1979027574971957e-02 1.2377948198805330e-02 0.0000000000000000e+00  2.2915851824517636e-02 1.2585953996286920e-02 0.0000000000000000e+00  2.3840258852842525e-02 1.2776439197520690e-02 0.0000000000000000e+00  2.4751326387945156e-02 1.2949772119205210e-02 0.0000000000000000e+00  2.5648001532831602e-02 1.3105993103308658e-02 0.0000000000000000e+00  2.6529115596178342e-02 1.3244807630537082e-02 0.0000000000000000e+00  2.7393398283011579e-02 1.3365575839833983e-02 0.0000000000000000e+00  2.8239491783097179e-02 1.3467298756672900e-02 0.0000000000000000e+00  2.9065965253382307e-02 1.3548601467928875e-02 0.0000000000000000e+00  2.9871330169092145e-02 1.3607713447472376e-02 0.0000000000000000e+00  3.0654057011469220e-02 1.3642446231705867e-02 0.0000000000000000e+00  3.1412593764996576e-02 1.3650168668654324e-02 0.0000000000000000e+00  3.2145386709913126e-02 1.3627780021756155e-02 0.0000000000000000e+00  3.2850904013255702e-02 1.3571681307773672e-02 0.0000000000000000e+00  3.3527662638911639e-02 1.3477745399781403e-02 0.0000000000000000e+00  3.4174259107617448e-02 1.3341286650528609e-02 0.0000000000000000e+00  3.4789404631441048e-02 1.3157031118605235e-02 0.0000000000000000e+00  3.5371965108298410e-02 1.2919088955962362e-02 0.0000000000000000e+00  3.5921006365654741e-02 1.2620931212445933e-02 0.0000000000000000e+00  3.6435844849574552e-02 1.2255374345238650e-02 0.0000000000000000e+00  3.6916103604959040e-02 1.1814577272992221e-02 0.0000000000000000e+00  3.7361772794215244e-02 1.1290058190574768e-02 0.0000000000000000e+00  3.7773273030295422e-02 1.0672742073576132e-02 0.0000000000000000e+00  3.8151518325852729e-02 9.9530557281579616e-03 0.0000000000000000e+00  3.8497973500252948e-02 9.1210968794524176e-03 0.0000000000000000e+00  3.8814699206334381e-02 8.1669196076921708e-03 0.0000000000000000e+00  3.9104379988226273e-02 7.0810038932443524e-03 0.0000000000000000e+00  3.9370350567775735e-02 5.8550137244245057e-03 0.0000000000000000e+00  3.9616717066660222e-02 4.4829783354449907e-03 0.0000000000000000e+00  3.9848925196552212e-02 2.9629473883626173e-03 0.0000000000000000e+00  4.0075714357117112e-02 1.2986432485792613e-03 0.0000000000000000e+00  0.0000000000000000e+00 0.0000000000000000e+00 0.0000000000000000e+00  1.0689986097497182e-03 1.0954611755412532e-03 0.0000000000000000e+00  2.2320762404740859e-03 2.2458658034139952e-03 0.0000000000000000e+00  3.4514861159927581e-03 3.3454745058633358e-03 0.0000000000000000e+00  4.6820983344574834e-03 4.3483483222907697e-03 0.0000000000000000e+00  5.8982962254301189e-03 5.2486095692056770e-03 0.0000000000000000e+00  7.0901371649780545e-03 6.0547484646620549e-03 0.0000000000000000e+00  8.2556209963570819e-03 6.7782111505370665e-03 0.0000000000000000e+00  9.3960679218837440e-03 7.4298072183833124e-03 0.0000000000000000e+00  1.0513920360885099e-02 8.0188886784611606e-03 0.0000000000000000e+00  1.1611786701776913e-02 8.5533587091977514e-03 0.0000000000000000e+00  1.2692054479475252e-02 9.0398789859027755e-03 0.0000000000000000e+00  1.3756754692803446e-02 9.4840883628083423e-03 0.0000000000000000e+00  1.4807533915526310e-02 9.8907859743885135e-03 0.0000000000000000e+00  1.5845670406413871e-02 1.0264073748255303e-02 0.0000000000000000e+00  1.6872105996916291e-02 1.0607464229521836e-02 0.0000000000000000e+00  1.7887481496119580e-02 1.0923961114996281e-02 0.0000000000000000e+00  1.8892170559421578e-02 1.1216118859810780e-02 0.0000000000000000e+00  1.9886310220475580e-02 1.1486086271022286e-02 0.0000000000000000e+00  2.0869827731394838e-02 1.1735637731806274e-02 0.0000000000000000e+00  2.1842463969389884e-02 1.1966194714136909e-02 0.0000000000000000e+00  2.2803793899476912e-02 1.2178839507957607e-02 0.0000000000000000e+00  2.3753244643298321e-02 1.2374322564024931e-02 0.0000000000000000e+00  2.4690111692422655e-02 1.2553064463878284e-02 0.0000000000000000e+00  2.5613573766940206e-02 1.2715153253491963e-02 0.0000000000000000e+00  2.6522706777730404e-02 1.2860337677994034e-02 0.0000000000000000e+00  2.7416497312347052e-02 1.2988016713102556e-02 0.0000000000000000e+00  2.8293856033135438e-02 1.3097225690964071e-02 0.0000000000000000e+00  2.9153631352260033e-02 1.3186619255151542e-02 0.0000000000000000e+00  2.9994623730698475e-02 1.3254451346760447e-02 0.0000000000000000e+00  3.0815600935092710e-02 1.3298552419057115e-02 0.0000000000000000e+00  3.1615314575154152e-02 1.3316304103135132e-02 0.0000000000000000e+00  3.2392518231915218e-02 1.3304611605767224e-02 0.0000000000000000e+00  3.3145987469344926e-02 1.3259874221056489e-02 0.0000000000000000e+00  3.3874541993123918e-02 1.3177954492422740e-02 0.0000000000000000e+00  3.4577070173137589e-02 1.3054146790599155e-02 0.0000000000000000e+00  3.5252556070245918e-02 1.2883146406352731e-02 0.0000000000000000e+00  3.5900108989585122e-02 1.2659020738238165e-02 0.0000000000000000e+00  3.6518995405209073e-02 1.2375184853218504e-02 0.0000000000000000e+00  3.7108672846331521e-02 1.2024384713410493e-02 0.0000000000000000e+00  3.7668824992859701e-02 1.1598692849818433e-02 0.0000000000000000e+00  3.8199396817674085e-02 1.1089523454529135e-02 0.0000000000000000e+00  3.8700628251796973e-02 1.0487677089596980e-02 0.0000000000000000e+00  3.9173084915969950e-02 9.7834299090780574e-03 0.0000000000000000e+00  3.9617686016879046e-02 8.9666888659423356e-03 0.0000000000000000e+00  4.0035735281105302e-02 8.0272425795052550e-03 0.0000000000000000e+00  4.0428977395078121e-02 6.9551442219347630e-03 0.0000000000000000e+00  4.0799744180611067e-02 5.7412548779585430e-03 0.0000000000000000e+00  4.1151346089359400e-02 4.3779120573239896e-03 0.0000000000000000e+00  4.1489021149932449e-02 2.8594663164242268e-03 0.0000000000000000e+00  4.1821886766840691e-02 1.1818640972430326e-03 0.0000000000000000e+00  0.0000000000000000e+00 0.0000000000000000e+00 0.0000000000000000e+00  1.0035532171197923e-03 9.7488888505601603e-04 0.0000000000000000e+00  2.0792853850241837e-03 1.9962809485561559e-03 0.0000000000000000e+00  3.2141147612383078e-03 3.0009317482771977e-03 0.0000000000000000e+00  4.3816945955134582e-03 3.9466637850178142e-03 0.0000000000000000e+00  5.5590573414979515e-03 4.8160337086870179e-03 0.0000000000000000e+00  6.7317147735148145e-03 5.6067815548987744e-03 0.0000000000000000e+00  7.8921673090486446e-03 6.3234679182099154e-03 0.0000000000000000e+00  9.0372737120562058e-03 6.9729573347526519e-03 0.0000000000000000e+00  1.0166273226942208e-02 7.5624225611089614e-03 0.0000000000000000e+00  1.1279580200041437e-02 8.0985780407438288e-03 0.0000000000000000e+00  1.2378109788866018e-02 8.5874438765846627e-03 0.0000000000000000e+00  1.3462917583551332e-02 9.0343207428942984e-03 0.0000000000000000e+00  1.4535014298572459e-02 9.4438394278073597e-03 0.0000000000000000e+00  1.5595275691393991e-02 9.8200294239975429e-03 0.0000000000000000e+00  1.6644403560660066e-02 1.0166385227816679e-02 0.0000000000000000e+00  1.7682913752558874e-02 1.0485923187353630e-02 0.0000000000000000e+00  1.8711138112366521e-02 1.0781227412054279e-02 0.0000000000000000e+00  1.9729233319014220e-02 1.1054485358152616e-02 0.0000000000000000e+00  2.0737192819123174e-02 1.1307514334281720e-02 0.0000000000000000e+00  2.1734859877220507e-02 1.1541780221275255e-02 0.0000000000000000e+00  2.2721940752052402e-02 1.1758409544727642e-02 0.0000000000000000e+00  2.3698017558217582e-02 1.1958195832768009e-02 0.0000000000000000e+00  2.4662560675708940e-02 1.2141600994666855e-02 0.0000000000000000e+00  2.5614940736232338e-02 1.2308752288450568e-02 0.0000000000000000e+00  2.6554440304718145e-02 1.2459435311720736e-02 0.0000000000000000e+00  2.7480265420857387e-02 1.2593083347665547e-02 0.0000000000000000e+00  2.8391557187427741e-02 1.2708763324759382e-02 0.0000000000000000e+00  2.9287403599746801e-02 1.2805158601312507e-02 0.0000000000000000e+00  3.0166851808947667e-02 1.2880548763592292e-02 0.0000000000000000e+00  3.1028921002997919e-02 1.2932786629119220e-02 0.0000000000000000e+00  3.1872616073567547e-02 1.2959272677420327e-02 0.0000000000000000e+00  3.2696942212608042e-02 1.2956927193965054e-02 0.0000000000000000e+00  3.3500920547267388e-02 1.2922160517372343e-02 0.0000000000000000e+00  3.4283604871982974e-02 1.2850841937630373e-02 0.0000000000000000e+00  3.5044099468055770e-02 1.2738268022146922e-02 0.0000000000000000e+00  3.5781577909695023e-02 1.2579131472967816e-02 0.0000000000000000e+00  3.6495302639607569e-02 1.2367492079294580e-02 0.0000000000000000e+00  3.7184644961784044e-02 1.2096751975603295e-02 0.0000000000000000e+00  3.7849104966599885e-02 1.1759638315759749e-02 0.0000000000000000e+00  3.8488330835736863e-02 1.1348197713175346e-02 0.0000000000000000e+00  3.9102137120436288e-02 1.0853808465807782e-02 0.0000000000000000e+00  3.9690522278092943e-02 1.0267218724987140e-02 0.0000000000000000e+00  4.0253687695711908e-02 9.5786212192580811e-03 0.0000000000000000e+00  4.0792065060082976e-02 8.7777771281586127e-03 0.0000000000000000e+00  4.1306368981073822e-02 7.8542007565097546e-03 0.0000000000000000e+00  4.1797711785874991e-02 6.7974062071926881e-03 0.0000000000000000e+00  4.2267852801298224e-02 5.5971817849014040e-03 0.0000000000000000e+00  4.2719704265451873e-02 4.2437665796432765e-03 0.0000000000000000e+00  4.3158248916858703e-02 2.7276126809740332e-03 0.0000000000000000e+00  4.3591929059101024e-02 1.0381088655078896e-03 0.0000000000000000e+00  0.0000000000000000e+00 0.0000000000000000e+00 0.0000000000000000e+00  9.6342193465744628e-04 8.8492995623659870e-04 0.0000000000000000e+00  1.9848278575400453e-03 1.8052365483129131e-03 0.0000000000000000e+00  3.0599975045938060e-03 2.7218992183537880e-03 0.0000000000000000e+00  4.1744891664470289e-03 3.6026661612550033e-03 0.0000000000000000e+00  5.3117353620880927e-03 4.4284563203010798e-03 0.0000000000000000e+00  6.4581707502193121e-03 5.1915176984391265e-03 0.0000000000000000e+00  7.6045163350524159e-03 5.8912188324633302e-03 0.0000000000000000e+00  8.7451362064484735e-03 6.5306181663080907e-03 0.0000000000000000e+00  9.8769494788971159e-03 7.1143586344170028e-03 0.0000000000000000e+00  1.0998493683275644e-02 7.6475420346749532e-03 0.0000000000000000e+00  1.2109260468239581e-02 8.1351792139039234e-03 0.0000000000000000e+00  1.3209263258774752e-02 8.5819452865755555e-03 0.0000000000000000e+00  1.4298768362675676e-02 8.9920868980933721e-03 0.0000000000000000e+00  1.5378132569760315e-02 9.3694013047093076e-03 0.0000000000000000e+00  1.6447707631736939e-02 9.7172467947666454e-03 0.0000000000000000e+00  1.7507785989856341e-02 1.0038564575385033e-02 0.0000000000000000e+00  1.8558571696712180e-02 1.0335902654813526e-02 0.0000000000000000e+00  1.9600166627731883e-02 1.0611437425883880e-02 0.0000000000000000e+00  2.0632565914042281e-02 1.0866991188342251e-02 0.0000000000000000e+00  2.1655658894129091e-02 1.1104045054859167e-02 0.0000000000000000e+00  2.2669233336355479e-02 1.1323747232449850e-02 0.0000000000000000e+00  2.3672981580034613e-02 1.1526916893260603e-02 0.0000000000000000e+00  2.4666507795885667e-02 1.1714043915393779e-02 0.0000000000000000e+00  2.5649335909279692e-02 1.1885284771019187e-02 0.0000000000000000e+00  2.6620917941908136e-02 1.2040454808455637e-02 0.0000000000000000e+00  2.7580642658167655e-02 1.2179017138875151e-02 0.0000000000000000e+00  2.8527844481288603e-02 1.2300068307861527e-02 0.0000000000000000e+00  2.9461812688986143e-02 1.2402320913316566e-02 0.0000000000000000e+00  3.03818009