<?xml version="1.0"?>
<VTKFile type="UnstructuredGrid"  version="0.1"  >
<UnstructuredGrid>
<Piece  NumberOfPoints="2601" NumberOfCells="5000">
<Points>
<DataArray  type="Float64"  NumberOfComponents="3"  format="ascii">0 0 0  0.02 0 0  0.04 0 0  0.06 0 0  0.08 0 0  0.1 0 0  0.12 0 0  0.14 0 0  0.16 0 0  0.18 0 0  0.2 0 0  0.22 0 0  0.24 0 0  0.26 0 0  0.28 0 0  0.3 0 0  0.32 0 0  0.34 0 0  0.36 0 0  0.38 0 0  0.4 0 0  0.42 0 0  0.44 0 0  0.46 0 0  0.48 0 0  0.5 0 0  0.52 0 0  0.54 0 0  0.5600000000000001 0 0  0.58 0 0  0.6 0 0  0.62 0 0  0.64 0 0  0.66 0 0  0.68 0 0  0.7 0 0  0.72 0 0  0.74 0 0  0.76 0 0  0.78 0 0  0.8 0 0  0.82 0 0  0.84 0 0  0.86 0 0  0.88 0 0  0.9 0 0  0.92 0 0  0.9399999999999999 0 0  0.96 0 0  0.98 0 0  1 0 0  0 0.02 0  0.02 0.02 0  0.04 0.02 0  0.06 0.02 0  0.08 0.02 0  0.1 0.02 0  0.12 0.02 0  0.14 0.02 0  0.16 0.02 0  0.18 0.02 0  0.2 0.02 0  0.22 0.02 0  0.24 0.02 0  0.26 0.02 0  0.28 0.02 0  0.3 0.02 0  0.32 0.02 0  0.34 0.02 0  0.36 0.02 0  0.38 0.02 0  0.4 0.02 0  0.42 0.02 0  0.44 0.02 0  0.46 0.02 0  0.48 0.02 0  0.5 0.02 0  0.52 0.02 0  0.54 0.02 0  0.5600000000000001 0.02 0  0.58 0.02 0  0.6 0.02 0  0.62 0.02 0  0.64 0.02 0  0.66 0.02 0  0.68 0.02 0  0.7 0.02 0  0.72 0.02 0  0.74 0.02 0  0.76 0.02 0  0.78 0.02 0  0.8 0.02 0  0.82 0.02 0  0.84 0.02 0  0.86 0.02 0  0.88 0.02 0  0.9 0.02 0  0.92 0.02 0  0.9399999999999999 0.02 0  0.96 0.02 0  0.98 0.02 0  1 0.02 0  0 0.04 0  0.02 0.04 0  0.04 0.04 0  0.06 0.04 0  0.08 0.04 0  0.1 0.04 0  0.12 0.04 0  0.14 0.04 0  0.16 0.04 0  0.18 0.04 0  0.2 0.04 0  0.22 0.04 0  0.24 0.04 0  0.26 0.04 0  0.28 0.04 0  0.3 0.04 0  0.32 0.04 0  0.34 0.04 0  0.36 0.04 0  0.38 0.04 0  0.4 0.04 0  0.42 0.04 0  0.44 0.04 0  0.46 0.04 0  0.48 0.04 0  0.5 0.04 0  0.52 0.04 0  0.54 0.04 0  0.5600000000000001 0.04 0  0.58 0.04 0  0.6 0.04 0  0.62 0.04 0  0.64 0.04 0  0.66 0.04 0  0.68 0.04 0  0.7 0.04 0  0.72 0.04 0  0.74 0.04 0  0.76 0.04 0  0.78 0.04 0  0.8 0.04 0  0.82 0.04 0  0.84 0.04 0  0.86 0.04 0  0.88 0.04 0  0.9 0.04 0  0.92 0.04 0  0.9399999999999999 0.04 0  0.96 0.04 0  0.98 0.04 0  1 0.04 0  0 0.06 0  0.02 0.06 0  0.04 0.06 0  0.06 0.06 0  0.08 0.06 0  0.1 0.06 0  0.12 0.06 0  0.14 0.06 0  0.16 0.06 0  0.18 0.06 0  0.2 0.06 0  0.22 0.06 0  0.24 0.06 0  0.26 0.06 0  0.28 0.06 0  0.3 0.06 0  0.32 0.06 0  0.34 0.06 0  0.36 0.06 0  0.38 0.06 0  0.4 0.06 0  0.42 0.06 0  0.44 0.06 0  0.46 0.06 0  0.48 0.06 0  0.5 0.06 0  0.52 0.06 0  0.54 0.06 0  0.5600000000000001 0.06 0  0.58 0.06 0  0.6 0.06 0  0.62 0.06 0  0.64 0.06 0  0.66 0.06 0  0.68 0.06 0  0.7 0.06 0  0.72 0.06 0  0.74 0.06 0  0.76 0.06 0  0.78 0.06 0  0.8 0.06 0  0.82 0.06 0  0.84 0.06 0  0.86 0.06 0  0.88 0.06 0  0.9 0.06 0  0.92 0.06 0  0.9399999999999999 0.06 0  0.96 0.06 0  0.98 0.06 0  1 0.06 0  0 0.08 0  0.02 0.08 0  0.04 0.08 0  0.06 0.08 0  0.08 0.08 0  0.1 0.08 0  0.12 0.08 0  0.14 0.08 0  0.16 0.08 0  0.18 0.08 0  0.2 0.08 0  0.22 0.08 0  0.24 0.08 0  0.26 0.08 0  0.28 0.08 0  0.3 0.08 0  0.32 0.08 0  0.34 0.08 0  0.36 0.08 0  0.38 0.08 0  0.4 0.08 0  0.42 0.08 0  0.44 0.08 0  0.46 0.08 0  0.48 0.08 0  0.5 0.08 0  0.52 0.08 0  0.54 0.08 0  0.5600000000000001 0.08 0  0.58 0.08 0  0.6 0.08 0  0.62 0.08 0  0.64 0.08 0  0.66 0.08 0  0.68 0.08 0  0.7 0.08 0  0.72 0.08 0  0.74 0.08 0  0.76 0.08 0  0.78 0.08 0  0.8 0.08 0  0.82 0.08 0  0.84 0.08 0  0.86 0.08 0  0.88 0.08 0  0.9 0.08 0  0.92 0.08 0  0.9399999999999999 0.08 0  0.96 0.08 0  0.98 0.08 0  1 0.08 0  0 0.1 0  0.02 0.1 0  0.04 0.1 0  0.06 0.1 0  0.08 0.1 0  0.1 0.1 0  0.12 0.1 0  0.14 0.1 0  0.16 0.1 0  0.18 0.1 0  0.2 0.1 0  0.22 0.1 0  0.24 0.1 0  0.26 0.1 0  0.28 0.1 0  0.3 0.1 0  0.32 0.1 0  0.34 0.1 0  0.36 0.1 0  0.38 0.1 0  0.4 0.1 0  0.42 0.1 0  0.44 0.1 0  0.46 0.1 0  0.48 0.1 0  0.5 0.1 0  0.52 0.1 0  0.54 0.1 0  0.5600000000000001 0.1 0  0.58 0.1 0  0.6 0.1 0  0.62 0.1 0  0.64 0.1 0  0.66 0.1 0  0.68 0.1 0  0.7 0.1 0  0.72 0.1 0  0.74 0.1 0  0.76 0.1 0  0.78 0.1 0  0.8 0.1 0  0.82 0.1 0  0.84 0.1 0  0.86 0.1 0  0.88 0.1 0  0.9 0.1 0  0.92 0.1 0  0.9399999999999999 0.1 0  0.96 0.1 0  0.98 0.1 0  1 0.1 0  0 0.12 0  0.02 0.12 0  0.04 0.12 0  0.06 0.12 0  0.08 0.12 0  0.1 0.12 0  0.12 0.12 0  0.14 0.12 0  0.16 0.12 0  0.18 0.12 0  0.2 0.12 0  0.22 0.12 0  0.24 0.12 0  0.26 0.12 0  0.28 0.12 0  0.3 0.12 0  0.32 0.12 0  0.34 0.12 0  0.36 0.12 0  0.38 0.12 0  0.4 0.12 0  0.42 0.12 0  0.44 0.12 0  0.46 0.12 0  0.48 0.12 0  0.5 0.12 0  0.52 0.12 0  0.54 0.12 0  0.5600000000000001 0.12 0  0.58 0.12 0  0.6 0.12 0  0.62 0.12 0  0.64 0.12 0  0.66 0.12 0  0.68 0.12 0  0.7 0.12 0  0.72 0.12 0  0.74 0.12 0  0.76 0.12 0  0.78 0.12 0  0.8 0.12 0  0.82 0.12 0  0.84 0.12 0  0.86 0.12 0  0.88 0.12 0  0.9 0.12 0  0.92 0.12 0  0.9399999999999999 0.12 0  0.96 0.12 0  0.98 0.12 0  1 0.12 0  0 0.14 0  0.02 0.14 0  0.04 0.14 0  0.06 0.14 0  0.08 0.14 0  0.1 0.14 0  0.12 0.14 0  0.14 0.14 0  0.16 0.14 0  0.18 0.14 0  0.2 0.14 0  0.22 0.14 0  0.24 0.14 0  0.26 0.14 0  0.28 0.14 0  0.3 0.14 0  0.32 0.14 0  0.34 0.14 0  0.36 0.14 0  0.38 0.14 0  0.4 0.14 0  0.42 0.14 0  0.44 0.14 0  0.46 0.14 0  0.48 0.14 0  0.5 0.14 0  0.52 0.14 0  0.54 0.14 0  0.5600000000000001 0.14 0  0.58 0.14 0  0.6 0.14 0  0.62 0.14 0  0.64 0.14 0  0.66 0.14 0  0.68 0.14 0  0.7 0.14 0  0.72 0.14 0  0.74 0.14 0  0.76 0.14 0  0.78 0.14 0  0.8 0.14 0  0.82 0.14 0  0.84 0.14 0  0.86 0.14 0  0.88 0.14 0  0.9 0.14 0  0.92 0.14 0  0.9399999999999999 0.14 0  0.96 0.14 0  0.98 0.14 0  1 0.14 0  0 0.16 0  0.02 0.16 0  0.04 0.16 0  0.06 0.16 0  0.08 0.16 0  0.1 0.16 0  0.12 0.16 0  0.14 0.16 0  0.16 0.16 0  0.18 0.16 0  0.2 0.16 0  0.22 0.16 0  0.24 0.16 0  0.26 0.16 0  0.28 0.16 0  0.3 0.16 0  0.32 0.16 0  0.34 0.16 0  0.36 0.16 0  0.38 0.16 0  0.4 0.16 0  0.42 0.16 0  0.44 0.16 0  0.46 0.16 0  0.48 0.16 0  0.5 0.16 0  0.52 0.16 0  0.54 0.16 0  0.5600000000000001 0.16 0  0.58 0.16 0  0.6 0.16 0  0.62 0.16 0  0.64 0.16 0  0.66 0.16 0  0.68 0.16 0  0.7 0.16 0  0.72 0.16 0  0.74 0.16 0  0.76 0.16 0  0.78 0.16 0  0.8 0.16 0  0.82 0.16 0  0.84 0.16 0  0.86 0.16 0  0.88 0.16 0  0.9 0.16 0  0.92 0.16 0  0.9399999999999999 0.16 0  0.96 0.16 0  0.98 0.16 0  1 0.16 0  0 0.18 0  0.02 0.18 0  0.04 0.18 0  0.06 0.18 0  0.08 0.18 0  0.1 0.18 0  0.12 0.18 0  0.14 0.18 0  0.16 0.18 0  0.18 0.18 0  0.2 0.18 0  0.22 0.18 0  0.24 0.18 0  0.26 0.18 0  0.28 0.18 0  0.3 0.18 0  0.32 0.18 0  0.34 0.18 0  0.36 0.18 0  0.38 0.18 0  0.4 0.18 0  0.42 0.18 0  0.44 0.18 0  0.46 0.18 0  0.48 0.18 0  0.5 0.18 0  0.52 0.18 0  0.54 0.18 0  0.5600000000000001 0.18 0  0.58 0.18 0  0.6 0.18 0  0.62 0.18 0  0.64 0.18 0  0.66 0.18 0  0.68 0.18 0  0.7 0.18 0  0.72 0.18 0  0.74 0.18 0  0.76 0.18 0  0.78 0.18 0  0.8 0.18 0  0.82 0.18 0  0.84 0.18 0  0.86 0.18 0  0.88 0.18 0  0.9 0.18 0  0.92 0.18 0  0.9399999999999999 0.18 0  0.96 0.18 0  0.98 0.18 0  1 0.18 0  0 0.2 0  0.02 0.2 0  0.04 0.2 0  0.06 0.2 0  0.08 0.2 0  0.1 0.2 0  0.12 0.2 0  0.14 0.2 0  0.16 0.2 0  0.18 0.2 0  0.2 0.2 0  0.22 0.2 0  0.24 0.2 0  0.26 0.2 0  0.28 0.2 0  0.3 0.2 0  0.32 0.2 0  0.34 0.2 0  0.36 0.2 0  0.38 0.2 0  0.4 0.2 0  0.42 0.2 0  0.44 0.2 0  0.46 0.2 0  0.48 0.2 0  0.5 0.2 0  0.52 0.2 0  0.54 0.2 0  0.5600000000000001 0.2 0  0.58 0.2 0  0.6 0.2 0  0.62 0.2 0  0.64 0.2 0  0.66 0.2 0  0.68 0.2 0  0.7 0.2 0  0.72 0.2 0  0.74 0.2 0  0.76 0.2 0  0.78 0.2 0  0.8 0.2 0  0.82 0.2 0  0.84 0.2 0  0.86 0.2 0  0.88 0.2 0  0.9 0.2 0  0.92 0.2 0  0.9399999999999999 0.2 0  0.96 0.2 0  0.98 0.2 0  1 0.2 0  0 0.22 0  0.02 0.22 0  0.04 0.22 0  0.06 0.22 0  0.08 0.22 0  0.1 0.22 0  0.12 0.22 0  0.14 0.22 0  0.16 0.22 0  0.18 0.22 0  0.2 0.22 0  0.22 0.22 0  0.24 0.22 0  0.26 0.22 0  0.28 0.22 0  0.3 0.22 0  0.32 0.22 0  0.34 0.22 0  0.36 0.22 0  0.38 0.22 0  0.4 0.22 0  0.42 0.22 0  0.44 0.22 0  0.46 0.22 0  0.48 0.22 0  0.5 0.22 0  0.52 0.22 0  0.54 0.22 0  0.5600000000000001 0.22 0  0.58 0.22 0  0.6 0.22 0  0.62 0.22 0  0.64 0.22 0  0.66 0.22 0  0.68 0.22 0  0.7 0.22 0  0.72 0.22 0  0.74 0.22 0  0.76 0.22 0  0.78 0.22 0  0.8 0.22 0  0.82 0.22 0  0.84 0.22 0  0.86 0.22 0  0.88 0.22 0  0.9 0.22 0  0.92 0.22 0  0.9399999999999999 0.22 0  0.96 0.22 0  0.98 0.22 0  1 0.22 0  0 0.24 0  0.02 0.24 0  0.04 0.24 0  0.06 0.24 0  0.08 0.24 0  0.1 0.24 0  0.12 0.24 0  0.14 0.24 0  0.16 0.24 0  0.18 0.24 0  0.2 0.24 0  0.22 0.24 0  0.24 0.24 0  0.26 0.24 0  0.28 0.24 0  0.3 0.24 0  0.32 0.24 0  0.34 0.24 0  0.36 0.24 0  0.38 0.24 0  0.4 0.24 0  0.42 0.24 0  0.44 0.24 0  0.46 0.24 0  0.48 0.24 0  0.5 0.24 0  0.52 0.24 0  0.54 0.24 0  0.5600000000000001 0.24 0  0.58 0.24 0  0.6 0.24 0  0.62 0.24 0  0.64 0.24 0  0.66 0.24 0  0.68 0.24 0  0.7 0.24 0  0.72 0.24 0  0.74 0.24 0  0.76 0.24 0  0.78 0.24 0  0.8 0.24 0  0.82 0.24 0  0.84 0.24 0  0.86 0.24 0  0.88 0.24 0  0.9 0.24 0  0.92 0.24 0  0.9399999999999999 0.24 0  0.96 0.24 0  0.98 0.24 0  1 0.24 0  0 0.26 0  0.02 0.26 0  0.04 0.26 0  0.06 0.26 0  0.08 0.26 0  0.1 0.26 0  0.12 0.26 0  0.14 0.26 0  0.16 0.26 0  0.18 0.26 0  0.2 0.26 0  0.22 0.26 0  0.24 0.26 0  0.26 0.26 0  0.28 0.26 0  0.3 0.26 0  0.32 0.26 0  0.34 0.26 0  0.36 0.26 0  0.38 0.26 0  0.4 0.26 0  0.42 0.26 0  0.44 0.26 0  0.46 0.26 0  0.48 0.26 0  0.5 0.26 0  0.52 0.26 0  0.54 0.26 0  0.5600000000000001 0.26 0  0.58 0.26 0  0.6 0.26 0  0.62 0.26 0  0.64 0.26 0  0.66 0.26 0  0.68 0.26 0  0.7 0.26 0  0.72 0.26 0  0.74 0.26 0  0.76 0.26 0  0.78 0.26 0  0.8 0.26 0  0.82 0.26 0  0.84 0.26 0  0.86 0.26 0  0.88 0.26 0  0.9 0.26 0  0.92 0.26 0  0.9399999999999999 0.26 0  0.96 0.26 0  0.98 0.26 0  1 0.26 0  0 0.28 0  0.02 0.28 0  0.04 0.28 0  0.06 0.28 0  0.08 0.28 0  0.1 0.28 0  0.12 0.28 0  0.14 0.28 0  0.16 0.28 0  0.18 0.28 0  0.2 0.28 0  0.22 0.28 0  0.24 0.28 0  0.26 0.28 0  0.28 0.28 0  0.3 0.28 0  0.32 0.28 0  0.34 0.28 0  0.36 0.28 0  0.38 0.28 0  0.4 0.28 0  0.42 0.28 0  0.44 0.28 0  0.46 0.28 0  0.48 0.28 0  0.5 0.28 0  0.52 0.28 0  0.54 0.28 0  0.5600000000000001 0.28 0  0.58 0.28 0  0.6 0.28 0  0.62 0.28 0  0.64 0.28 0  0.66 0.28 0  0.68 0.28 0  0.7 0.28 0  0.72 0.28 0  0.74 0.28 0  0.76 0.28 0  0.78 0.28 0  0.8 0.28 0  0.82 0.28 0  0.84 0.28 0  0.86 0.28
[...]
<PointData  Vectors="f_89"> 
<DataArray  type="Float64"  Name="f_89"  NumberOfComponents="3" format="ascii">0.0000000000000000e+00 0.0000000000000000e+00 0.0000000000000000e+00  1.6209263301995677e-02 9.7850647723517481e-03 0.0000000000000000e+00  2.6483768058408883e-02 1.4361448721661590e-02 0.0000000000000000e+00  3.5309089097112417e-02 1.7654138348802997e-02 0.0000000000000000e+00  4.3250254128577879e-02 2.0260916752278698e-02 0.0000000000000000e+00  5.0578746605288348e-02 2.2404562947370199e-02 0.0000000000000000e+00  5.7441638697240810e-02 2.4205808148181077e-02 0.0000000000000000e+00  6.3931581175269453e-02 2.5737695657816799e-02 0.0000000000000000e+00  7.0112507040119551e-02 2.7048479777269652e-02 0.0000000000000000e+00  7.6031420112219847e-02 2.8172198699889898e-02 0.0000000000000000e+00  8.1724544221209394e-02 2.9134168883667461e-02 0.0000000000000000e+00  8.7220832859292094e-02 2.9954095767460494e-02 0.0000000000000000e+00  9.2544110704982127e-02 3.0647953368496066e-02 0.0000000000000000e+00  9.7714450442405898e-02 3.1229179479048214e-02 0.0000000000000000e+00  1.0274909632432275e-01 3.1709467936471454e-02 0.0000000000000000e+00  1.0766310607083819e-01 3.2099312692173559e-02 0.0000000000000000e+00  1.1246981073748717e-01 3.2408393418589324e-02 0.0000000000000000e+00  1.1718115295264711e-01 3.2645857093517784e-02 0.0000000000000000e+00  1.2180794147710056e-01 3.2820529881487662e-02 0.0000000000000000e+00  1.2636004666168127e-01 3.2941081688956146e-02 0.0000000000000000e+00  1.3084655312413060e-01 3.3016158433280166e-02 0.0000000000000000e+00  1.3527588071611435e-01 3.3054492427185007e-02 0.0000000000000000e+00  1.3965588142308416e-01 3.3064998281017777e-02 0.0000000000000000e+00  1.4399391754872229e-01 3.3056859755507047e-02 0.0000000000000000e+00  1.4829692497312494e-01 3.3039611698832162e-02 0.0000000000000000e+00  1.5257146418836068e-01 3.3023220357760806e-02 0.0000000000000000e+00  1.5682376104809165e-01 3.3018164833623020e-02 0.0000000000000000e+00  1.6105973861712455e-01 3.3035522183984270e-02 0.0000000000000000e+00  1.6528504110432393e-01 3.3087058610596083e-02 0.0000000000000000e+00  1.6950505056232548e-01 3.3185329311480417e-02 0.0000000000000000e+00  1.7372489680786996e-01 3.3343789922142722e-02 0.0000000000000000e+00  1.7794946083426080e-01 3.3576923065960988e-02 0.0000000000000000e+00  1.8218337183503075e-01 3.3900384447314899e-02 0.0000000000000000e+00  1.8643099782147918e-01 3.4331174269280465e-02 0.0000000000000000e+00  1.9069642968437200e-01 3.4887841726639751e-02 0.0000000000000000e+00  1.9498345841060138e-01 3.5590733211790841e-02 0.0000000000000000e+00  1.9929554500766591e-01 3.6462299157962320e-02 0.0000000000000000e+00  2.0363578250006750e-01 3.7527480930642468e-02 0.0000000000000000e+00  2.0800684912828363e-01 3.8814209228757751e-02 0.0000000000000000e+00  2.1241095158714474e-01 4.0354061479149321e-02 0.0000000000000000e+00  2.1684975676999604e-01 4.2183152116366029e-02 0.0000000000000000e+00  2.2132431002571404e-01 4.4343374906618396e-02 0.0000000000000000e+00  2.2583493739281410e-01 4.6884197743553666e-02 0.0000000000000000e+00  2.3038112870401808e-01 4.9865364578959681e-02 0.0000000000000000e+00  2.3496139798933430e-01 5.3361172478763839e-02 0.0000000000000000e+00  2.3957311685892793e-01 5.7467685360179675e-02 0.0000000000000000e+00  2.4421230555155338e-01 6.2315962992004176e-02 0.0000000000000000e+00  2.4887323800958563e-01 6.8099333731591979e-02 0.0000000000000000e+00  2.5354566936444062e-01 7.5139607212554332e-02 0.0000000000000000e+00  2.5821559018566531e-01 8.4098135386575748e-02 0.0000000000000000e+00  2.6249572216325978e-01 9.7696457015056609e-02 0.0000000000000000e+00  0.0000000000000000e+00 0.0000000000000000e+00 0.0000000000000000e+00  9.4952141156072027e-03 5.3932693479296747e-03 0.0000000000000000e+00  1.9364170212975977e-02 1.0368485489101787e-02 0.0000000000000000e+00  2.8324084105330258e-02 1.4062600506302307e-02 0.0000000000000000e+00  3.6477222265155707e-02 1.6965592951782064e-02 0.0000000000000000e+00  4.4008934215661745e-02 1.9335646585596403e-02 0.0000000000000000e+00  5.1053237036029452e-02 2.1316909121652964e-02 0.0000000000000000e+00  5.7703590427118742e-02 2.2996598759937325e-02 0.0000000000000000e+00  6.4026998744167174e-02 2.4431697096708782e-02 0.0000000000000000e+00  7.0073374312181080e-02 2.5661863565210580e-02 0.0000000000000000e+00  7.5881249586211716e-02 2.6716201289564950e-02 0.0000000000000000e+00  8.1481305930644995e-02 2.7617069643921292e-02 0.0000000000000000e+00  8.6898623251107268e-02 2.8382367266991514e-02 0.0000000000000000e+00  9.2154163274063602e-02 2.9026969208185774e-02 0.0000000000000000e+00  9.7265778901386185e-02 2.9563670089463857e-02 0.0000000000000000e+00  1.0224892092660205e-01 3.0003825606160293e-02 0.0000000000000000e+00  1.0711714560424938e-01 3.0357803015377511e-02 0.0000000000000000e+00  1.1188248751356709e-01 3.0635307135860695e-02 0.0000000000000000e+00  1.1655573896292896e-01 3.0845623412117142e-02 0.0000000000000000e+00  1.2114666298957108e-01 3.0997804887363752e-02 0.0000000000000000e+00  1.2566415808213921e-01 3.1100820963969912e-02 0.0000000000000000e+00  1.3011638699301817e-01 3.1163680203193298e-02 0.0000000000000000e+00  1.3451087820110261e-01 3.1195535800374114e-02 0.0000000000000000e+00  1.3885460601385988e-01 3.1205780008993315e-02 0.0000000000000000e+00  1.4315405352134122e-01 3.1204132232037298e-02 0.0000000000000000e+00  1.4741526135955946e-01 3.1200724485625914e-02 0.0000000000000000e+00  1.5164386432970986e-01 3.1206187307582657e-02 0.0000000000000000e+00  1.5584511723576241e-01 3.1231738837974886e-02 0.0000000000000000e+00  1.6002391076469608e-01 3.1289279688698053e-02 0.0000000000000000e+00  1.6418477778114005e-01 3.1391496326026523e-02 0.0000000000000000e+00  1.6833188999263429e-01 3.1551976022168873e-02 0.0000000000000000e+00  1.7246904451778794e-01 3.1785337025972221e-02 0.0000000000000000e+00  1.7659963940785425e-01 3.2107378530382549e-02 0.0000000000000000e+00  1.8072663657023427e-01 3.2535256394882334e-02 0.0000000000000000e+00  1.8485250973181624e-01 3.3087692608057252e-02 0.0000000000000000e+00  1.8897917392580282e-01 3.3785229459278171e-02 0.0000000000000000e+00  1.9310789126940639e-01 3.4650543835415368e-02 0.0000000000000000e+00  1.9723914515344529e-01 3.5708843812125926e-02 0.0000000000000000e+00  2.0137247074333414e-01 3.6988380216454703e-02 0.0000000000000000e+00  2.0550622272021934e-01 3.8521122665570236e-02 0.0000000000000000e+00  2.0963724924610685e-01 4.0343677474539374e-02 0.0000000000000000e+00  2.1376041981130275e-01 4.2498572933450406e-02 0.0000000000000000e+00  2.1786791475128309e-01 4.5036124459043717e-02 0.0000000000000000e+00  2.2194810567845696e-01 4.8017258606333185e-02 0.0000000000000000e+00  2.2598369202033528e-01 5.1518015922801086e-02 0.0000000000000000e+00  2.2994839408271506e-01 5.5637211469575960e-02 0.0000000000000000e+00  2.3380064714334220e-01 6.0510598328429317e-02 0.0000000000000000e+00  2.3747075406237680e-01 6.6340027307391553e-02 0.0000000000000000e+00  2.4083464643587282e-01 7.3462420042460674e-02 0.0000000000000000e+00  2.4369305133625946e-01 8.2532869370460060e-02 0.0000000000000000e+00  2.4629681507225626e-01 9.4458985689375136e-02 0.0000000000000000e+00  0.0000000000000000e+00 0.0000000000000000e+00 0.0000000000000000e+00  7.3429174784528936e-03 3.2664408557984189e-03 0.0000000000000000e+00  1.5403513482282515e-02 7.2575821186760666e-03 0.0000000000000000e+00  2.3507449318138852e-02 1.0836192939577129e-02 0.0000000000000000e+00  3.1282224247665698e-02 1.3835108944415643e-02 0.0000000000000000e+00  3.8651697633645697e-02 1.6343925314587927e-02 0.0000000000000000e+00  4.5636194355209263e-02 1.8462791313601071e-02 0.0000000000000000e+00  5.2278009426060389e-02 2.0268153865829499e-02 0.0000000000000000e+00  5.8619549435452924e-02 2.1815433119192242e-02 0.0000000000000000e+00  6.4698061582211100e-02 2.3145242170901793e-02 0.0000000000000000e+00  7.0545126887777504e-02 2.4288180694912065e-02 0.0000000000000000e+00  7.6187374967890797e-02 2.5268064594904303e-02 0.0000000000000000e+00  8.1647379781514873e-02 2.6104057929869952e-02 0.0000000000000000e+00  8.6944454967012461e-02 2.6812094642055251e-02 0.0000000000000000e+00  9.2095296647775229e-02 2.7405845646166823e-02 0.0000000000000000e+00  9.7114486569167768e-02 2.7897391835169053e-02 0.0000000000000000e+00  1.0201488230073892e-01 2.8297703706683133e-02 0.0000000000000000e+00  1.0680792000282191e-01 2.8616991681778229e-02 0.0000000000000000e+00  1.1150385043367415e-01 2.8864968704733051e-02 0.0000000000000000e+00  1.1611192399320695e-01 2.9051052716243683e-02 0.0000000000000000e+00  1.2064053657016098e-01 2.9184527721989328e-02 0.0000000000000000e+00  1.2509734485889845e-01 2.9274676453274556e-02 0.0000000000000000e+00  1.2948935748924445e-01 2.9330893861320848e-02 0.0000000000000000e+00  1.3382300658536481e-01 2.9362788194741970e-02 0.0000000000000000e+00  1.3810420307915214e-01 2.9380274749730567e-02 0.0000000000000000e+00  1.4233837812572792e-01 2.9393666289087017e-02 0.0000000000000000e+00  1.4653051220903032e-01 2.9413763436129295e-02 0.0000000000000000e+00  1.5068515291183490e-01 2.9451947964752406e-02 0.0000000000000000e+00  1.5480642179975398e-01 2.9520281773932937e-02 0.0000000000000000e+00  1.5889801038415213e-01 2.9631614433550557e-02 0.0000000000000000e+00  1.6296316463852809e-01 2.9799702527141692e-02 0.0000000000000000e+00  1.6700465699739606e-01 3.0039344634782215e-02 0.0000000000000000e+00  1.7102474410624749e-01 3.0366536771370696e-02 0.0000000000000000e+00  1.7502510773558586e-01 3.0798654549543305e-02 0.0000000000000000e+00  1.7900677510641114e-01 3.1354670477990634e-02 0.0000000000000000e+00  1.8297001322627737e-01 3.2055417965802920e-02 0.0000000000000000e+00  1.8691418943669538e-01 3.2923918319627946e-02 0.0000000000000000e+00  1.9083758680039745e-01 3.3985794185821740e-02 0.0000000000000000e+00  1.9473715752914952e-01 3.5269804024305129e-02 0.0000000000000000e+00  1.9860818926535415e-01 3.6808549967510658e-02 0.0000000000000000e+00  2.0244384591068906e-01 3.8639440632382345e-02 0.0000000000000000e+00  2.0623452411443186e-01 4.0806040120927541e-02 0.0000000000000000e+00  2.0996693486451576e-01 4.3360021970239492e-02 0.0000000000000000e+00  2.1362277464139603e-01 4.6364106773723747e-02 0.0000000000000000e+00  2.1717680466323863e-01 4.9896663792308331e-02 0.0000000000000000e+00  2.2059419948542516e-01 5.4059230415742371e-02 0.0000000000000000e+00  2.2382761177849755e-01 5.8989213637366963e-02 0.0000000000000000e+00  2.2681764986870298e-01 6.4881013652640762e-02 0.0000000000000000e+00  2.2951563820321164e-01 7.2012620131114438e-02 0.0000000000000000e+00  2.3199987405309166e-01 8.0705993992542413e-02 0.0000000000000000e+00  2.3471874254736810e-01 9.0835435717734295e-02 0.0000000000000000e+00  0.0000000000000000e+00 0.0000000000000000e+00 0.0000000000000000e+00  6.3214719341055789e-03 2.1826859703237261e-03 0.0000000000000000e+00  1.3169866366169411e-02 5.1904617980236085e-03 0.0000000000000000e+00  2.0309179709008137e-02 8.2856493030970188e-03 0.0000000000000000e+00  2.7448443688311574e-02 1.1121383830401012e-02 0.0000000000000000e+00  3.4420173634262016e-02 1.3614446405390220e-02 0.0000000000000000e+00  4.1157558501468183e-02 1.5779337864627145e-02 0.0000000000000000e+00  4.7645627663672585e-02 1.7654461272233832e-02 0.0000000000000000e+00  5.3891941379734513e-02 1.9278548493997974e-02 0.0000000000000000e+00  5.9912580930944433e-02 2.0684887547669298e-02 0.0000000000000000e+00  6.5725972448123213e-02 2.1900931541716618e-02 0.0000000000000000e+00  7.1350305883203541e-02 2.2949258227761941e-02 0.0000000000000000e+00  7.6802548202460977e-02 2.3848677535561857e-02 0.0000000000000000e+00  8.2098150571383297e-02 2.4615176548393004e-02 0.0000000000000000e+00  8.7251048053333682e-02 2.5262659184116926e-02 0.0000000000000000e+00  9.2273772848120286e-02 2.5803509200057889e-02 0.0000000000000000e+00  9.7177601873411248e-02 2.6249016711719537e-02 0.0000000000000000e+00  1.0197270463034117e-01 2.6609703592568219e-02 0.0000000000000000e+00  1.0666827778254581e-01 2.6895575326403822e-02 0.0000000000000000e+00  1.1127266208096871e-01 2.7116319898082653e-02 0.0000000000000000e+00  1.1579344124863754e-01 2.7281468883164784e-02 0.0000000000000000e+00  1.2023752399947217e-01 2.7400531908082084e-02 0.0000000000000000e+00  1.2461121081300554e-01 2.7483112790581170e-02 0.0000000000000000e+00  1.2892024703961788e-01 2.7539013645605313e-02 0.0000000000000000e+00  1.3316986365736133e-01 2.7578331829903598e-02 0.0000000000000000e+00  1.3736480667290454e-01 2.7611553639007070e-02 0.0000000000000000e+00  1.4150935581012253e-01 2.7649648054046131e-02 0.0000000000000000e+00  1.4560733277692700e-01 2.7704163494343362e-02 0.0000000000000000e+00  1.4966209904101216e-01 2.7787330427215970e-02 0.0000000000000000e+00  1.5367654266374547e-01 2.7912172807750567e-02 0.0000000000000000e+00  1.5765305331567350e-01 2.8092631682484347e-02 0.0000000000000000e+00  1.6159348409586022e-01 2.8343704933795472e-02 0.0000000000000000e+00  1.6549909815938293e-01 2.8681608143531972e-02 0.0000000000000000e+00  1.6937049736846344e-01 2.9123963041395046e-02 0.0000000000000000e+00  1.7320752915176135e-01 2.9690022175474937e-02 0.0000000000000000e+00  1.7700916639263098e-01 3.0400941612092343e-02 0.0000000000000000e+00  1.8077335336366948e-01 3.1280118132430167e-02 0.0000000000000000e+00  1.8449680838065791e-01 3.2353614326789057e-02 0.0000000000000000e+00  1.8817477094615159e-01 3.3650705446338053e-02 0.0000000000000000e+00  1.9180067798457087e-01 3.5204597867438188e-02 0.0000000000000000e+00  1.9536575157613986e-01 3.7053393743347887e-02 0.0000000000000000e+00  1.9885848331054073e-01 3.9241414684132316e-02 0.0000000000000000e+00  2.0226401945121689e-01 4.1821055363101475e-02 0.0000000000000000e+00  2.0556351890949962e-01 4.4855419341030468e-02 0.0000000000000000e+00  2.0873376338779995e-01 4.8422073382071648e-02 0.0000000000000000e+00  2.1174789742639949e-01 5.2618204582365949e-02 0.0000000000000000e+00  2.1457982479690854e-01 5.7566643863397909e-02 0.0000000000000000e+00  2.1721888144013851e-01 6.3418108076710958e-02 0.0000000000000000e+00  2.1970832137584387e-01 7.0329260133519270e-02 0.0000000000000000e+00  2.2221276020136554e-01 7.8355427477933948e-02 0.0000000000000000e+00  2.2502343013395362e-01 8.7197181760863954e-02 0.0000000000000000e+00  0.0000000000000000e+00 0.0000000000000000e+00 0.0000000000000000e+00  5.6932017761417309e-03 1.5356813323371828e-03 0.0000000000000000e+00  1.1757827328974091e-02 3.8069502237592858e-03 0.0000000000000000e+00  1.8122626489225642e-02 6.3644939432520396e-03 0.0000000000000000e+00  2.4623658284015425e-02 8.8937217208328954e-03 0.0000000000000000e+00  3.1114958814192222e-02 1.1241570252810754e-02 0.0000000000000000e+00  3.7503452953724842e-02 1.3356069014833187e-02 0.0000000000000000e+00  4.3740562292088565e-02 1.5232837529000702e-02 0.0000000000000000e+00  4.9805976766747147e-02 1.6886002205761710e-02 0.0000000000000000e+00  5.5695305231855952e-02 1.8335162511235369e-02 0.0000000000000000e+00  6.1412494254215716e-02 1.9600201078470030e-02 0.0000000000000000e+00  6.6965544248427739e-02 2.0699504810646675e-02 0.0000000000000000e+00  7.2364179783754756e-02 2.1649570437399280e-02 0.0000000000000000e+00  7.7618613583757379e-02 2.2465128066764414e-02 0.0000000000000000e+00  8.2738909138708183e-02 2.3159426530672086e-02 0.0000000000000000e+00  8.7734667822878323e-02 2.3744540973512741e-02 0.0000000000000000e+00  9.2614890513488327e-02 2.4231653338728096e-02 0.0000000000000000e+00  9.7387931675840839e-02 2.4631293008139706e-02 0.0000000000000000e+00  1.0206150090604883e-01 2.4953538889550975e-02 0.0000000000000000e+00  1.0664268715431990e-01 2.5208188917573430e-02 0.0000000000000000e+00  1.1113799196770918e-01 2.5404903837146067e-02 0.0000000000000000e+00  1.1555336422659038e-01 2.5553331654162213e-02 0.0000000000000000e+00  1.1989423223687032e-01 2.5663218253263682e-02 0.0000000000000000e+00  1.2416553089570448e-01 2.5744508795474290e-02 0.0000000000000000e+00  1.2837172263990518e-01 2.5807443762255453e-02 0.0000000000000000e+00  1.3251681138326160e-01 2.5862652949274891e-02 0.0000000000000000e+00  1.3660434885722852e-01 2.5921250336509664e-02 0.0000000000000000e+00  1.4063743280277147e-01 2.5994932566002417e-02 0.0000000000000000e+00  1.4461869638120511e-01 2.6096083743075961e-02 0.0000000000000000e+00  1.4855028801018180e-01 2.6237889449700170e-02 0.0000000000000000e+00  1.5243384060166304e-01 2.6434463243285279e-02 0.0000000000000000e+00  1.5627042888648687e-01 2.6700989553231060e-02 0.0000000000000000e+00  1.6006051315703315e-01 2.7053887850075072e-02 0.0000000000000000e+00  1.6380386735308083e-01 2.7511004352854675e-02 0.0000000000000000e+00  1.6749948898381051e-01 2.8091839513890538e-02 0.0000000000000000e+00  1.7114548799720453e-01 2.8817822299648320e-02 0.0000000000000000e+00  1.7473895156135802e-01 2.9712646185317521e-02 0.0000000000000000e+00  1.7827578222922108e-01 3.0802687220325930e-02 0.0000000000000000e+00  1.8175050904105008e-01 3.2117532010993766e-02 0.0000000000000000e+00  1.8515607678077553e-01 3.3690653449815713e-02 0.0000000000000000e+00  1.8848363218074407e-01 3.5560284316505167e-02 0.0000000000000000e+00  1.9172235674837967e-01 3.7770550899995280e-02 0.0000000000000000e+00  1.9485946429568504e-01 4.0372930293087410e-02 0.0000000000000000e+00  1.9788063002766856e-01 4.3428052923806047e-02 0.0000000000000000e+00  2.0077143315418358e-01 4.7007687883555443e-02 0.0000000000000000e+00  2.0352102365724714e-01 5.1196146578540200e-02 0.0000000000000000e+00  2.0613029255765236e-01 5.6088609167886966e-02 0.0000000000000000e+00  2.0862779751874436e-01 6.1779544396322286e-02 0.0000000000000000e+00  2.1109387194207352e-01 6.8326359331876488e-02 0.0000000000000000e+00  2.1367618684869669e-01 7.5670587656838248e-02 0.0000000000000000e+00  2.1654808985612362e-01 8.3540912333440631e-02 0.0000000000000000e+00  0.0000000000000000e+00 0.0000000000000000e+00 0.0000000000000000e+00  5.2508221011860826e-03 1.1047689720794899e-03 0.0000000000000000e+00  1.0770992575222092e-02 2.8396578933531816e-03 0.0000000000000000e+00  1.6548032490355941e-02 4.9214432351322984e-03 0.0000000000000000e+00  2.2498063478145695e-02 7.1069381224644615e-03 0.0000000000000000e+00  2.8519639581764032e-02 9.2376303214527153e-03 0.0000000000000000e+00  3.4528279446692012e-02 1.1229585531013848e-02 0.0000000000000000e+00  4.0465839480492830e-02 1.3047203525783459e-02 0.0000000000000000e+00  4.6297126979391715e-02 1.4681490821272571e-02 0.0000000000000000e+00  5.2003384418487293e-02 1.6136589228982395e-02 0.0000000000000000e+00  5.7576556418665985e-02 1.7422466124416083e-02 0.0000000000000000e+00  6.3015177403045339e-02 1.8551246266840328e-02 0.0000000000000000e+00  6.8321666225642508e-02 1.9535488993465300e-02 0.0000000000000000e+00  7.3500619426310421e-02 2.0387451040818818e-02 0.0000000000000000e+00  7.8557758210831288e-02 2.1118830667883465e-02 0.0000000000000000e+00  8.3499287921340773e-02 2.1740737584431888e-02 0.0000000000000000e+00  8.8331513332607983e-02 2.2263762233439545e-02 0.0000000000000000e+00  9.3060611250555883e-02 2.2698083347541899e-02 0.0000000000000000e+00  9.7692499240148029e-02 2.3053585413792467e-02 0.0000000000000000e+00  1.0223276260818211e-01 2.3339973885815785e-02 0.0000000000000000e+00  1.0668661612758018e-01 2.3566883888565818e-02 0.0000000000000000e+00  1.1105888581285993e-01 2.3743981913468690e-02 0.0000000000000000e+00  1.1535400148090628e-01 2.3881061693814737e-02 0.0000000000000000e+00  1.1957599417184095e-01 2.3988136142123813e-02 0.0000000000000000e+00  1.2372849456280238e-01 2.4075527462210412e-02 0.0000000000000000e+00  1.2781472977037267e-01 2.4153957594873671e-02 0.0000000000000000e+00  1.3183751670311938e-01 2.4234641160872462e-02 0.0000000000000000e+00  1.3579925057765030e-01 2.4329383105660914e-02 0.0000000000000000e+00  1.3970188746465054e-01 2.4450683373950836e-02 0.0000000000000000e+00  1.4354691986