<?xml version="1.0"?>
<VTKFile type="UnstructuredGrid"  version="0.1"  >
<UnstructuredGrid>
<Piece  NumberOfPoints="2601" NumberOfCells="5000">
<Points>
<DataArray  type="Float64"  NumberOfComponents="3"  format="ascii">0 0 0  0.02 0 0  0.04 0 0  0.06 0 0  0.08 0 0  0.1 0 0  0.12 0 0  0.14 0 0  0.16 0 0  0.18 0 0  0.2 0 0  0.22 0 0  0.24 0 0  0.26 0 0  0.28 0 0  0.3 0 0  0.32 0 0  0.34 0 0  0.36 0 0  0.38 0 0  0.4 0 0  0.42 0 0  0.44 0 0  0.46 0 0  0.48 0 0  0.5 0 0  0.52 0 0  0.54 0 0  0.5600000000000001 0 0  0.58 0 0  0.6 0 0  0.62 0 0  0.64 0 0  0.66 0 0  0.68 0 0  0.7 0 0  0.72 0 0  0.74 0 0  0.76 0 0  0.78 0 0  0.8 0 0  0.82 0 0  0.84 0 0  0.86 0 0  0.88 0 0  0.9 0 0  0.92 0 0  0.9399999999999999 0 0  0.96 0 0  0.98 0 0  1 0 0  0 0.02 0  0.02 0.02 0  0.04 0.02 0  0.06 0.02 0  0.08 0.02 0  0.1 0.02 0  0.12 0.02 0  0.14 0.02 0  0.16 0.02 0  0.18 0.02 0  0.2 0.02 0  0.22 0.02 0  0.24 0.02 0  0.26 0.02 0  0.28 0.02 0  0.3 0.02 0  0.32 0.02 0  0.34 0.02 0  0.36 0.02 0  0.38 0.02 0  0.4 0.02 0  0.42 0.02 0  0.44 0.02 0  0.46 0.02 0  0.48 0.02 0  0.5 0.02 0  0.52 0.02 0  0.54 0.02 0  0.5600000000000001 0.02 0  0.58 0.02 0  0.6 0.02 0  0.62 0.02 0  0.64 0.02 0  0.66 0.02 0  0.68 0.02 0  0.7 0.02 0  0.72 0.02 0  0.74 0.02 0  0.76 0.02 0  0.78 0.02 0  0.8 0.02 0  0.82 0.02 0  0.84 0.02 0  0.86 0.02 0  0.88 0.02 0  0.9 0.02 0  0.92 0.02 0  0.9399999999999999 0.02 0  0.96 0.02 0  0.98 0.02 0  1 0.02 0  0 0.04 0  0.02 0.04 0  0.04 0.04 0  0.06 0.04 0  0.08 0.04 0  0.1 0.04 0  0.12 0.04 0  0.14 0.04 0  0.16 0.04 0  0.18 0.04 0  0.2 0.04 0  0.22 0.04 0  0.24 0.04 0  0.26 0.04 0  0.28 0.04 0  0.3 0.04 0  0.32 0.04 0  0.34 0.04 0  0.36 0.04 0  0.38 0.04 0  0.4 0.04 0  0.42 0.04 0  0.44 0.04 0  0.46 0.04 0  0.48 0.04 0  0.5 0.04 0  0.52 0.04 0  0.54 0.04 0  0.5600000000000001 0.04 0  0.58 0.04 0  0.6 0.04 0  0.62 0.04 0  0.64 0.04 0  0.66 0.04 0  0.68 0.04 0  0.7 0.04 0  0.72 0.04 0  0.74 0.04 0  0.76 0.04 0  0.78 0.04 0  0.8 0.04 0  0.82 0.04 0  0.84 0.04 0  0.86 0.04 0  0.88 0.04 0  0.9 0.04 0  0.92 0.04 0  0.9399999999999999 0.04 0  0.96 0.04 0  0.98 0.04 0  1 0.04 0  0 0.06 0  0.02 0.06 0  0.04 0.06 0  0.06 0.06 0  0.08 0.06 0  0.1 0.06 0  0.12 0.06 0  0.14 0.06 0  0.16 0.06 0  0.18 0.06 0  0.2 0.06 0  0.22 0.06 0  0.24 0.06 0  0.26 0.06 0  0.28 0.06 0  0.3 0.06 0  0.32 0.06 0  0.34 0.06 0  0.36 0.06 0  0.38 0.06 0  0.4 0.06 0  0.42 0.06 0  0.44 0.06 0  0.46 0.06 0  0.48 0.06 0  0.5 0.06 0  0.52 0.06 0  0.54 0.06 0  0.5600000000000001 0.06 0  0.58 0.06 0  0.6 0.06 0  0.62 0.06 0  0.64 0.06 0  0.66 0.06 0  0.68 0.06 0  0.7 0.06 0  0.72 0.06 0  0.74 0.06 0  0.76 0.06 0  0.78 0.06 0  0.8 0.06 0  0.82 0.06 0  0.84 0.06 0  0.86 0.06 0  0.88 0.06 0  0.9 0.06 0  0.92 0.06 0  0.9399999999999999 0.06 0  0.96 0.06 0  0.98 0.06 0  1 0.06 0  0 0.08 0  0.02 0.08 0  0.04 0.08 0  0.06 0.08 0  0.08 0.08 0  0.1 0.08 0  0.12 0.08 0  0.14 0.08 0  0.16 0.08 0  0.18 0.08 0  0.2 0.08 0  0.22 0.08 0  0.24 0.08 0  0.26 0.08 0  0.28 0.08 0  0.3 0.08 0  0.32 0.08 0  0.34 0.08 0  0.36 0.08 0  0.38 0.08 0  0.4 0.08 0  0.42 0.08 0  0.44 0.08 0  0.46 0.08 0  0.48 0.08 0  0.5 0.08 0  0.52 0.08 0  0.54 0.08 0  0.5600000000000001 0.08 0  0.58 0.08 0  0.6 0.08 0  0.62 0.08 0  0.64 0.08 0  0.66 0.08 0  0.68 0.08 0  0.7 0.08 0  0.72 0.08 0  0.74 0.08 0  0.76 0.08 0  0.78 0.08 0  0.8 0.08 0  0.82 0.08 0  0.84 0.08 0  0.86 0.08 0  0.88 0.08 0  0.9 0.08 0  0.92 0.08 0  0.9399999999999999 0.08 0  0.96 0.08 0  0.98 0.08 0  1 0.08 0  0 0.1 0  0.02 0.1 0  0.04 0.1 0  0.06 0.1 0  0.08 0.1 0  0.1 0.1 0  0.12 0.1 0  0.14 0.1 0  0.16 0.1 0  0.18 0.1 0  0.2 0.1 0  0.22 0.1 0  0.24 0.1 0  0.26 0.1 0  0.28 0.1 0  0.3 0.1 0  0.32 0.1 0  0.34 0.1 0  0.36 0.1 0  0.38 0.1 0  0.4 0.1 0  0.42 0.1 0  0.44 0.1 0  0.46 0.1 0  0.48 0.1 0  0.5 0.1 0  0.52 0.1 0  0.54 0.1 0  0.5600000000000001 0.1 0  0.58 0.1 0  0.6 0.1 0  0.62 0.1 0  0.64 0.1 0  0.66 0.1 0  0.68 0.1 0  0.7 0.1 0  0.72 0.1 0  0.74 0.1 0  0.76 0.1 0  0.78 0.1 0  0.8 0.1 0  0.82 0.1 0  0.84 0.1 0  0.86 0.1 0  0.88 0.1 0  0.9 0.1 0  0.92 0.1 0  0.9399999999999999 0.1 0  0.96 0.1 0  0.98 0.1 0  1 0.1 0  0 0.12 0  0.02 0.12 0  0.04 0.12 0  0.06 0.12 0  0.08 0.12 0  0.1 0.12 0  0.12 0.12 0  0.14 0.12 0  0.16 0.12 0  0.18 0.12 0  0.2 0.12 0  0.22 0.12 0  0.24 0.12 0  0.26 0.12 0  0.28 0.12 0  0.3 0.12 0  0.32 0.12 0  0.34 0.12 0  0.36 0.12 0  0.38 0.12 0  0.4 0.12 0  0.42 0.12 0  0.44 0.12 0  0.46 0.12 0  0.48 0.12 0  0.5 0.12 0  0.52 0.12 0  0.54 0.12 0  0.5600000000000001 0.12 0  0.58 0.12 0  0.6 0.12 0  0.62 0.12 0  0.64 0.12 0  0.66 0.12 0  0.68 0.12 0  0.7 0.12 0  0.72 0.12 0  0.74 0.12 0  0.76 0.12 0  0.78 0.12 0  0.8 0.12 0  0.82 0.12 0  0.84 0.12 0  0.86 0.12 0  0.88 0.12 0  0.9 0.12 0  0.92 0.12 0  0.9399999999999999 0.12 0  0.96 0.12 0  0.98 0.12 0  1 0.12 0  0 0.14 0  0.02 0.14 0  0.04 0.14 0  0.06 0.14 0  0.08 0.14 0  0.1 0.14 0  0.12 0.14 0  0.14 0.14 0  0.16 0.14 0  0.18 0.14 0  0.2 0.14 0  0.22 0.14 0  0.24 0.14 0  0.26 0.14 0  0.28 0.14 0  0.3 0.14 0  0.32 0.14 0  0.34 0.14 0  0.36 0.14 0  0.38 0.14 0  0.4 0.14 0  0.42 0.14 0  0.44 0.14 0  0.46 0.14 0  0.48 0.14 0  0.5 0.14 0  0.52 0.14 0  0.54 0.14 0  0.5600000000000001 0.14 0  0.58 0.14 0  0.6 0.14 0  0.62 0.14 0  0.64 0.14 0  0.66 0.14 0  0.68 0.14 0  0.7 0.14 0  0.72 0.14 0  0.74 0.14 0  0.76 0.14 0  0.78 0.14 0  0.8 0.14 0  0.82 0.14 0  0.84 0.14 0  0.86 0.14 0  0.88 0.14 0  0.9 0.14 0  0.92 0.14 0  0.9399999999999999 0.14 0  0.96 0.14 0  0.98 0.14 0  1 0.14 0  0 0.16 0  0.02 0.16 0  0.04 0.16 0  0.06 0.16 0  0.08 0.16 0  0.1 0.16 0  0.12 0.16 0  0.14 0.16 0  0.16 0.16 0  0.18 0.16 0  0.2 0.16 0  0.22 0.16 0  0.24 0.16 0  0.26 0.16 0  0.28 0.16 0  0.3 0.16 0  0.32 0.16 0  0.34 0.16 0  0.36 0.16 0  0.38 0.16 0  0.4 0.16 0  0.42 0.16 0  0.44 0.16 0  0.46 0.16 0  0.48 0.16 0  0.5 0.16 0  0.52 0.16 0  0.54 0.16 0  0.5600000000000001 0.16 0  0.58 0.16 0  0.6 0.16 0  0.62 0.16 0  0.64 0.16 0  0.66 0.16 0  0.68 0.16 0  0.7 0.16 0  0.72 0.16 0  0.74 0.16 0  0.76 0.16 0  0.78 0.16 0  0.8 0.16 0  0.82 0.16 0  0.84 0.16 0  0.86 0.16 0  0.88 0.16 0  0.9 0.16 0  0.92 0.16 0  0.9399999999999999 0.16 0  0.96 0.16 0  0.98 0.16 0  1 0.16 0  0 0.18 0  0.02 0.18 0  0.04 0.18 0  0.06 0.18 0  0.08 0.18 0  0.1 0.18 0  0.12 0.18 0  0.14 0.18 0  0.16 0.18 0  0.18 0.18 0  0.2 0.18 0  0.22 0.18 0  0.24 0.18 0  0.26 0.18 0  0.28 0.18 0  0.3 0.18 0  0.32 0.18 0  0.34 0.18 0  0.36 0.18 0  0.38 0.18 0  0.4 0.18 0  0.42 0.18 0  0.44 0.18 0  0.46 0.18 0  0.48 0.18 0  0.5 0.18 0  0.52 0.18 0  0.54 0.18 0  0.5600000000000001 0.18 0  0.58 0.18 0  0.6 0.18 0  0.62 0.18 0  0.64 0.18 0  0.66 0.18 0  0.68 0.18 0  0.7 0.18 0  0.72 0.18 0  0.74 0.18 0  0.76 0.18 0  0.78 0.18 0  0.8 0.18 0  0.82 0.18 0  0.84 0.18 0  0.86 0.18 0  0.88 0.18 0  0.9 0.18 0  0.92 0.18 0  0.9399999999999999 0.18 0  0.96 0.18 0  0.98 0.18 0  1 0.18 0  0 0.2 0  0.02 0.2 0  0.04 0.2 0  0.06 0.2 0  0.08 0.2 0  0.1 0.2 0  0.12 0.2 0  0.14 0.2 0  0.16 0.2 0  0.18 0.2 0  0.2 0.2 0  0.22 0.2 0  0.24 0.2 0  0.26 0.2 0  0.28 0.2 0  0.3 0.2 0  0.32 0.2 0  0.34 0.2 0  0.36 0.2 0  0.38 0.2 0  0.4 0.2 0  0.42 0.2 0  0.44 0.2 0  0.46 0.2 0  0.48 0.2 0  0.5 0.2 0  0.52 0.2 0  0.54 0.2 0  0.5600000000000001 0.2 0  0.58 0.2 0  0.6 0.2 0  0.62 0.2 0  0.64 0.2 0  0.66 0.2 0  0.68 0.2 0  0.7 0.2 0  0.72 0.2 0  0.74 0.2 0  0.76 0.2 0  0.78 0.2 0  0.8 0.2 0  0.82 0.2 0  0.84 0.2 0  0.86 0.2 0  0.88 0.2 0  0.9 0.2 0  0.92 0.2 0  0.9399999999999999 0.2 0  0.96 0.2 0  0.98 0.2 0  1 0.2 0  0 0.22 0  0.02 0.22 0  0.04 0.22 0  0.06 0.22 0  0.08 0.22 0  0.1 0.22 0  0.12 0.22 0  0.14 0.22 0  0.16 0.22 0  0.18 0.22 0  0.2 0.22 0  0.22 0.22 0  0.24 0.22 0  0.26 0.22 0  0.28 0.22 0  0.3 0.22 0  0.32 0.22 0  0.34 0.22 0  0.36 0.22 0  0.38 0.22 0  0.4 0.22 0  0.42 0.22 0  0.44 0.22 0  0.46 0.22 0  0.48 0.22 0  0.5 0.22 0  0.52 0.22 0  0.54 0.22 0  0.5600000000000001 0.22 0  0.58 0.22 0  0.6 0.22 0  0.62 0.22 0  0.64 0.22 0  0.66 0.22 0  0.68 0.22 0  0.7 0.22 0  0.72 0.22 0  0.74 0.22 0  0.76 0.22 0  0.78 0.22 0  0.8 0.22 0  0.82 0.22 0  0.84 0.22 0  0.86 0.22 0  0.88 0.22 0  0.9 0.22 0  0.92 0.22 0  0.9399999999999999 0.22 0  0.96 0.22 0  0.98 0.22 0  1 0.22 0  0 0.24 0  0.02 0.24 0  0.04 0.24 0  0.06 0.24 0  0.08 0.24 0  0.1 0.24 0  0.12 0.24 0  0.14 0.24 0  0.16 0.24 0  0.18 0.24 0  0.2 0.24 0  0.22 0.24 0  0.24 0.24 0  0.26 0.24 0  0.28 0.24 0  0.3 0.24 0  0.32 0.24 0  0.34 0.24 0  0.36 0.24 0  0.38 0.24 0  0.4 0.24 0  0.42 0.24 0  0.44 0.24 0  0.46 0.24 0  0.48 0.24 0  0.5 0.24 0  0.52 0.24 0  0.54 0.24 0  0.5600000000000001 0.24 0  0.58 0.24 0  0.6 0.24 0  0.62 0.24 0  0.64 0.24 0  0.66 0.24 0  0.68 0.24 0  0.7 0.24 0  0.72 0.24 0  0.74 0.24 0  0.76 0.24 0  0.78 0.24 0  0.8 0.24 0  0.82 0.24 0  0.84 0.24 0  0.86 0.24 0  0.88 0.24 0  0.9 0.24 0  0.92 0.24 0  0.9399999999999999 0.24 0  0.96 0.24 0  0.98 0.24 0  1 0.24 0  0 0.26 0  0.02 0.26 0  0.04 0.26 0  0.06 0.26 0  0.08 0.26 0  0.1 0.26 0  0.12 0.26 0  0.14 0.26 0  0.16 0.26 0  0.18 0.26 0  0.2 0.26 0  0.22 0.26 0  0.24 0.26 0  0.26 0.26 0  0.28 0.26 0  0.3 0.26 0  0.32 0.26 0  0.34 0.26 0  0.36 0.26 0  0.38 0.26 0  0.4 0.26 0  0.42 0.26 0  0.44 0.26 0  0.46 0.26 0  0.48 0.26 0  0.5 0.26 0  0.52 0.26 0  0.54 0.26 0  0.5600000000000001 0.26 0  0.58 0.26 0  0.6 0.26 0  0.62 0.26 0  0.64 0.26 0  0.66 0.26 0  0.68 0.26 0  0.7 0.26 0  0.72 0.26 0  0.74 0.26 0  0.76 0.26 0  0.78 0.26 0  0.8 0.26 0  0.82 0.26 0  0.84 0.26 0  0.86 0.26 0  0.88 0.26 0  0.9 0.26 0  0.92 0.26 0  0.9399999999999999 0.26 0  0.96 0.26 0  0.98 0.26 0  1 0.26 0  0 0.28 0  0.02 0.28 0  0.04 0.28 0  0.06 0.28 0  0.08 0.28 0  0.1 0.28 0  0.12 0.28 0  0.14 0.28 0  0.16 0.28 0  0.18 0.28 0  0.2 0.28 0  0.22 0.28 0  0.24 0.28 0  0.26 0.28 0  0.28 0.28 0  0.3 0.28 0  0.32 0.28 0  0.34 0.28 0  0.36 0.28 0  0.38 0.28 0  0.4 0.28 0  0.42 0.28 0  0.44 0.28 0  0.46 0.28 0  0.48 0.28 0  0.5 0.28 0  0.52 0.28 0  0.54 0.28 0  0.5600000000000001 0.28 0  0.58 0.28 0  0.6 0.28 0  0.62 0.28 0  0.64 0.28 0  0.66 0.28 0  0.68 0.28 0  0.7 0.28 0  0.72 0.28 0  0.74 0.28 0  0.76 0.28 0  0.78 0.28 0  0.8 0.28 0  0.82 0.28 0  0.84 0.28 0  0.86 0.28
[...]
<PointData  Scalars="f_831"> 
<DataArray  type="Float64"  Name="f_831"  format="ascii">1.7372272364792923e+02  8.9324805208064959e+01  7.1374633283994470e+01  6.3669517644442351e+01  5.9069397792617281e+01  5.6036541940978708e+01  5.3908491467078008e+01  5.2355213405941157e+01  5.1188707386022841e+01  5.0290925347843476e+01  4.9582526253581733e+01  4.9007264109621609e+01  4.8523496748045105e+01  4.8099247170721483e+01  4.7709174412502293e+01  4.7332633822207185e+01  4.6952390243756518e+01  4.6553739276498646e+01  4.6123893202800986e+01  4.5651544473501232e+01  4.5126552235232367e+01  4.4539716965867605e+01  4.3882620455953123e+01  4.3147516189158914e+01  4.2327260358881077e+01  4.1415277323148082e+01  4.0405555853512816e+01  3.9292674456579512e+01  3.8071855587765945e+01  3.6739049902001433e+01  3.5291052918446248e+01  3.3725657713086164e+01  3.2041848577452235e+01  3.0240042077119703e+01  2.8322383695859589e+01  2.6293110357930921e+01  2.4158991693971394e+01  2.1929866086310756e+01  1.9619291455613851e+01  1.7245335648961543e+01  1.4831537554891376e+01  1.2408078676223555e+01  1.0013218522962317e+01  7.6950723845863420e+00  5.5138552431867058e+00  3.5447408712665092e+00  1.8810863146898038e+00  6.3525914673238626e-01  -7.6220812429840176e-02  -1.8428713220010690e-01  2.0471959519145180e-03  7.1810449437381692e+01  8.4068028262730181e+01  7.4573796100555754e+01  6.8325390223761332e+01  6.3254778700034990e+01  5.9727128524675734e+01  5.7158985719820848e+01  5.5235237348965676e+01  5.3757254057146937e+01  5.2595462811369188e+01  5.1661329246593283e+01  5.0891760937931735e+01  5.0240111543321959e+01  4.9670762713015868e+01  4.9155731468033984e+01  4.8672470863341857e+01  4.8202400791550673e+01  4.7729901282772303e+01  4.7241608248822345e+01  4.6725913014200877e+01  4.6172603202692493e+01  4.5572604597287608e+01  4.4917797403595344e+01  4.4200889239546051e+01  4.3415333054285000e+01  4.2555282171127843e+01  4.1615577434913313e+01  4.0591763441155251e+01  3.9480132294251611e+01  3.8277794444037177e+01  3.6982776975483439e+01  3.5594150310918366e+01  3.4112184615036135e+01  3.2538537194661934e+01  3.0876471705790497e+01  2.9131108752385561e+01  2.7309705055521448e+01  2.5421954143975181e+01  2.3480294601395748e+01  2.1500201404758574e+01  1.9500421755997195e+01  1.7503102661349079e+01  1.5533758549548601e+01  1.3621089740073160e+01  1.1796903701290155e+01  1.0097043554879908e+01  8.5655168260084533e+00  7.2649954218533077e+00  6.2916226614703898e+00  5.7779207640781962e+00  5.8759193791473745e+00  6.1929838874464423e+01  6.9776320596268391e+01  7.0347516825596884e+01  6.7373453105195438e+01  6.4052130684673472e+01  6.1225037814886690e+01  5.8913574912717017e+01  5.7057764932406450e+01  5.5561179866939518e+01  5.4341417373147252e+01  5.3332802819816123e+01  5.2483991130858207e+01  5.1754693250623987e+01  5.1112916358541348e+01  5.0532873516708001e+01  4.9993452319473391e+01  4.9477102254733111e+01  4.8969025041048347e+01  4.8456582615981326e+01  4.7928862287652514e+01  4.7376356720487586e+01  4.6790729187961063e+01  4.6164643375116263e+01  4.5491643137475542e+01  4.4766071864827907e+01  4.3983024033776609e+01  4.3138323542495669e+01  4.2228524747983869e+01  4.1250932917373888e+01  4.0203641137991717e+01  3.9085580627630762e+01  3.7896580828406918e+01  3.6637434603897262e+01  3.5309962227426183e+01  3.3917065614552790e+01  3.2462761484452329e+01  3.0952179175790921e+01  2.9391506620723696e+01  2.7787868602267210e+01  2.6149129220341507e+01  2.4483633833611233e+01  2.2799959948655278e+01  2.1106858363525610e+01  1.9413779652094298e+01  1.7732763883996292e+01  1.6083102289257329e+01  1.4501062400362860e+01  1.3057687403663815e+01  1.1886951445629418e+01  1.1225022881047565e+01  1.1487962317482335e+01  5.5956448069963287e+01  6.1198471479069291e+01  6.3905294367628244e+01  6.3923946561841262e+01  6.2649232427085302e+01  6.0994389986167477e+01  5.9363542444232337e+01  5.7896722528256966e+01  5.6620806877820549e+01  5.5523264693017516e+01  5.4578467364403323e+01  5.3758824387810606e+01  5.3038645377441696e+01  5.2395259575145253e+01  5.1809075016599913e+01  5.1263272732037223e+01  5.0743413154128191e+01  5.0237060040485630e+01  4.9733456496568067e+01  4.9223259314767660e+01  4.8698327281467023e+01  4.8151555925825335e+01  4.7576750930086725e+01  4.6968533174709826e+01  4.6322269344994865e+01  4.5634022849784131e+01  4.4900520371731290e+01  4.4119129641010524e+01  4.3287843991745866e+01  4.2405268926175395e+01  4.1470605293833209e+01  4.0483622833621240e+01  3.9444616821585612e+01  3.8354339607551509e+01  3.7213898276281647e+01  3.6024610181208772e+01  3.4787810788274250e+01  3.3504614973630758e+01  3.2175646626344232e+01  3.0800776873195428e+01  2.9378956059790308e+01  2.7908300983064890e+01  2.6386726577795109e+01  2.4813622260014554e+01  2.3193416069452834e+01  2.1542403870990398e+01  1.9900964021962633e+01  1.8353997112858778e+01  1.7062419669114362e+01  1.6306940712594628e+01  1.6549938512701999e+01  5.2238987402992699e+01  5.6086155371322114e+01  5.8920479409373343e+01  6.0216134672754869e+01  6.0317419936891348e+01  5.9753887237895505e+01  5.8901320661004085e+01  5.7967634956509926e+01  5.7054095365417169e+01  5.6203227638737090e+01  5.5427563299781106e+01  5.4725280904657666e+01  5.4088145236353476e+01  5.3505496344273368e+01  5.2966190958198801e+01  5.2459509055397206e+01  5.1975540505772997e+01  5.1505315001115569e+01  5.1040809670489516e+01  5.0574902780364454e+01  5.0101307844623506e+01  4.9614504745586501e+01  4.9109675175005400e+01  4.8582644777680287e+01  4.8029831706331848e+01  4.7448199764624995e+01  4.6835213337345010e+01  4.6188790576910215e+01  4.5507250683379596e+01  4.4789250533851437e+01  4.4033705414333532e+01  4.3239688290706738e+01  4.2406302126218932e+01  4.1532520540624894e+01  4.0616994115290780e+01  3.9657823638277172e+01  3.8652308673994604e+01  3.7596691700670156e+01  3.6485937195957305e+01  3.5313615344094266e+01  3.4072007616101196e+01  3.2752626176558849e+01  3.1347456538407233e+01  2.9851416717215898e+01  2.8266807075014274e+01  2.6610926862984371e+01  2.4928524292617297e+01  2.3311103259427860e+01  2.1924913438969522e+01  2.1047402097489751e+01  2.1111559525384347e+01  4.9606582438436511e+01  5.2620588715618943e+01  5.5222190097434606e+01  5.6971602023457450e+01  5.7854618284465047e+01  5.8090293925972617e+01  5.7919132088624679e+01  5.7523482835264190e+01  5.7020896817095128e+01  5.6480326955036915e+01  5.5939218436347396e+01  5.5415924723314326e+01  5.4917693551703195e+01  5.4445529338157435e+01  5.3997069063958108e+01  5.3568259250475826e+01  5.3154322693423204e+01  5.2750308509361624e+01  5.2351398519943366e+01  5.1953071292514338e+01  5.1551182932854218e+01  5.1141998882055120e+01  5.0722196259501693e+01  5.0288847477871450e+01  4.9839390474543791e+01  4.9371587534492342e+01  4.8883472505739221e+01  4.8373284769383432e+01  4.7839387385952783e+01  4.7280166302404922e+01  4.6693907386224268e+01  4.6078648459031086e+01  4.5432004634794588e+01  4.4750967433019021e+01  4.4031681784824876e+01  4.3269210816611370e+01  4.2457307107839085e+01  4.1588222339353095e+01  4.0652606943262981e+01  3.9639580698614232e+01  3.8537099043922922e+01  3.7332805428194582e+01  3.6015657407903426e+01  3.4578755646612116e+01  3.3024000547717208e+01  3.1369446845472634e+01  2.9660486917209500e+01  2.7986180921267440e+01  2.6502212430895014e+01  2.5461246883943375e+01  2.5253576400840991e+01  4.7618163042035384e+01  5.0112109730638124e+01  5.2449221742577429e+01  5.4315967030197761e+01  5.5601279496212648e+01  5.6359412465420824e+01  5.6712755333398256e+01  5.6785983212964844e+01  5.6679016636415064e+01  5.6463097331600089e+01  5.6185589385882750e+01  5.5876429976455519e+01  5.5553661339817751e+01  5.5227513042721320e+01  5.4903215296713405e+01  5.4582871032365276e+01  5.4266678126848525e+01  5.3953718443510283e+01  5.3642462651765499e+01  5.3331089442260293e+01  5.3017683036335015e+01  5.2700349802974372e+01  5.2377279679481191e+01  5.2046768233741084e+01  5.1707208763395506e+01  5.1357059599161850e+01  5.0994789011684070e+01  5.0618798356068716e+01  5.0227323069193616e+01  4.9818310745343567e+01  4.9389275742160756e+01  4.8937130682081595e+01  4.8457996965265792e+01  4.7946999238376236e+01  4.7398053020860381e+01  4.6803660889219977e+01  4.6154741508400484e+01  4.5440528478727742e+01  4.4648594054894055e+01  4.3765078614285727e+01  4.2775243505474997e+01  4.1664516649353764e+01  4.0420271403321870e+01  3.9034673109243336e+01  3.7509044841958271e+01  3.5860342660751996e+01  3.4130509334593270e+01  3.2399782388288713e+01  3.0805843771270645e+01  2.9571409151271951e+01  2.9046822217920838e+01  4.6050469876644840e+01  4.8202532321230620e+01  5.0316664789473847e+01  5.2174957906584282e+01  5.3655002824420144e+01  5.4737605181386954e+01  5.5468476459010681e+01  5.5918713537853144e+01  5.6159457670021787e+01  5.6250658653525505e+01  5.6238440247359200e+01  5.6156401885614130e+01  5.6028150849046433e+01  5.5869834398894753e+01  5.5692242019823027e+01  5.5502408857872375e+01  5.5304784507347975e+01  5.5102062454415332e+01  5.4895758069077011e+01  5.4686604843552068e+01  5.4474820314449488e+01  5.4260278099550312e+01  5.4042611136332347e+01  5.3821262990965053e+01  5.3595498297727012e+01  5.3364379365816504e+01  5.3126713284630931e+01  5.2880972145604765e+01  5.2625188083702888e+01  5.2356824616724722e+01  5.2072626203855023e+01  5.1768449093421978e+01  5.1439078492807496e+01  5.1078040046262210e+01  5.0677417826122387e+01  5.0227696929614510e+01  4.9717656902827507e+01  4.9134353397595703e+01  4.8463240785326803e+01  4.7688509277593397e+01  4.6793737982398262e+01  4.5763001716754843e+01  4.4582615271700639e+01  4.3243754796292649e+01  4.1746265581375965e+01  4.0104068897912597e+01  3.8352796489449723e+01  3.6560809104401748e+01  3.4846072924964091e+01  3.3402835316279088e+01  3.2546756702591054e+01  4.4776701356447582e+01  4.6696879240213789e+01  4.8638206388533270e+01  5.0447085380186230e+01  5.2014813861124104e+01  5.3294320040436574e+01  5.4288212002167370e+01  5.5028535745622115e+01  5.5558970997752958e+01  5.5923507815111250e+01  5.6160894963421320e+01  5.6302831190613162e+01  5.6374117843566580e+01  5.6393626591343775e+01  5.6375466553510755e+01  5.6330070536434000e+01  5.6265100905288925e+01  5.6186161303000226e+01  5.6097334940863909e+01  5.6001579886656579e+01  5.5901010769804728e+01  5.5797091528895230e+01  5.5690758358895948e+01  5.5582487114381422e+01  5.5472315472128471e+01  5.5359827177241883e+01  5.5244103594604056e+01  5.5123646449410970e+01  5.4996274975432300e+01  5.4859000645296916e+01  5.4707883220309995e+01  5.4537873060523950e+01  5.4342646557119203e+01  5.4114444324444207e+01  5.3843925624590852e+01  5.3520057684836317e+01  5.3130065500088591e+01  5.2659476880112749e+01  5.2092309469130164e+01  5.1411461784093014e+01  5.0599389402265992e+01  4.9639170469418985e+01  4.8516092080857263e+01  4.7219923630153886e+01  4.5748097753040696e+01  4.4110136402481608e+01  4.2333954417763415e+01  4.0475377065158490e+01  3.8633767148848200e+01  3.6978367821706939e+01  3.5794951447266868e+01  4.3718701703778613e+01  4.5479038985294757e+01  4.7290969111097212e+01  4.9043421397566362e+01  5.0645961855135234e+01  5.2044389400385050e+01  5.3219538983684188e+01  5.4178300549555502e+01  5.4942800791784798e+01  5.5541584295355477e+01  5.6003848908178306e+01  5.6356340834743122e+01  5.6622073863610254e+01  5.6820112904005200e+01  5.6965887592240314e+01  5.7071712258919618e+01  5.7147337915257133e+01  5.7200453851479310e+01  5.7237107572143401e+01  5.7262037634257901e+01  5.7278925463499796e+01  5.7290576207463999e+01  5.7299039047081848e+01  5.7305676238750777e+01  5.7311188581688292e+01  5.7315603516194926e+01  5.7318230892371645e+01  5.7317590697052161e+01  5.7311316722874849e+01  5.7296040322985768e+01  5.7267259039315419e+01  5.7219196059079593e+01  5.7144658211547132e+01  5.7034902664780383e+01  5.6879525764507783e+01  5.6666391755552823e+01  5.6381624657095486e+01  5.6009693541444243e+01  5.5533630064406914e+01  5.4935427379654598e+01  5.4196681512788750e+01  5.3299550077268535e+01  5.2228120616397192e+01  5.0970308899273526e+01  4.9520467914176521e+01  4.7883036951634956e+01  4.6077922781794690e+01  4.4149098041134394e+01  4.2179503211817838e+01  4.0317042616178561e+01  3.8821574713188049e+01  4.2825260203307479e+01  4.4475212700378222e+01  4.6192457923496661e+01  4.7894340506816249e+01  4.9507068351593645e+01  5.0978064189742199e+01  5.2278602232582863e+01  5.3400733356819579e+01  5.4351397279128363e+01  5.5146400997867836e+01  5.5805612469179394e+01  5.6349707795590184e+01  5.6798267426531147e+01  5.7168845095586271e+01  5.7476653500848506e+01  5.7734597713788261e+01  5.7953477389356451e+01  5.8142249371359149e+01  5.8308290413455794e+01  5.8457629779469279e+01  5.8595138952222499e+01  5.8724675144205527e+01  5.8849180005434661e+01  5.8970736962854609e+01  5.9090591289157715e+01  5.9209137045057204e+01  5.9325874899785717e+01  5.9439344751793463e+01  5.9547037182308451e+01  5.9645288157962568e+01  5.9729162114003330e+01  5.9792329649422783e+01  5.9826947609725096e+01  5.9823551395435729e+01  5.9770971999685408e+01  5.9656293635812141e+01  5.9464871940449392e+01  5.9180437662023202e+01  5.8785316436853350e+01  5.8260801646958555e+01  5.7587724551005806e+01  5.6747274870946065e+01  5.5722139558243931e+01  5.4498058464853770e+01  5.3065970309199891e+01  5.1425100538613371e+01  4.9587743690186926e+01  4.7587302440469152e+01  4.5492682821522152e+01  4.3433756686485644e+01  4.1647788570272603e+01  4.2061273987173237e+01  4.3636029016865649e+01  4.5285678449590321e+01  4.6946948315693469e+01  4.8559709105684796e+01  5.0076244120751937e+01  5.1464842177888613e+01  5.2709568309465674e+01  5.3807452184200919e+01  5.4764738815863666e+01  5.5593321758863631e+01  5.6307904732407735e+01  5.6924010420485992e+01  5.7456729825376200e+01  5.7920028090097318e+01  5.8326426328594103e+01  5.8686914839138346e+01  5.9010994241590595e+01  5.9306776158710072e+01  5.9581101111925605e+01  5.9839649089404261e+01  6.0087029683773373e+01  6.0326845708481684e+01  6.0561728324220482e+01  6.0793344050700107e+01  6.1022375353559241e+01  6.1248477271520109e+01  6.1470213094192971e+01  6.1684972612999289e+01  6.1888877071621074e+01  6.2076675724865446e+01  6.2241639939940924e+01  6.2375462099149921e+01  6.2468168234911346e+01  6.2508055389187298e+01  6.2481667161775491e+01  6.2373823786989242e+01  6.2167726308891240e+01  6.1845157953512249e+01  6.1386809677078908e+01  6.0772761661865246e+01  5.9983160236465736e+01  5.8999145870411134e+01  5.7804125886039039e+01  5.6385574408602309e+01  5.4737739451714141e+01  5.2866048974050116e+01  5.0794790126713742e+01  4.8581068475038066e+01  4.6339558971134338e+01  4.4287783037268746e+01  4.1401862182776291e+01  4.2927100029978440e+01  4.4530130005953254e+01  4.6161227978066734e+01  4.7771092191033929e+01  4.9317676289114232e+01  5.0769634581908491e+01  5.2107319216276075e+01  5.3321743454462094e+01  5.4412444112085083e+01  5.5385036045362227e+01  5.6248974551667246e+01  5.7015763923604133e+01  5.7697657283762183e+01  5.8306789202897704e+01  5.8854644304618162e+01  5.9351764121726916e+01  5.9807610103539425e+01  6.0230520592426885e+01  6.0627717882805662e+01  6.1005336062088070e+01  6.1368451050053118e+01  6.1721101715277953e+01  6.2066295957074246e+01  6.2405998931414629e+01  6.2741102752220087e+01  6.3071378443524821e+01  6.3395411958154092e+01  6.3710526921389224e+01  6.4012697548144047e+01  6.4296456017907161e+01  6.4554799543021502e+01  6.4779103482393538e+01  6.4959048166831280e+01  6.5082568625332826e+01  6.5135838123184556e+01  6.5103298306807162e+01  6.4967750758327540e+01  6.4710526929665562e+01  6.4311756069567977e+01  6.3750754963356847e+01  6.3006571964862367e+01  6.2058737642458254e+01  6.0888319705344763e+01  5.9479479111620378e+01  5.7821929832623027e+01  5.5915108923440059e+01  5.3775598720113230e+01  5.1450664773027633e+01  4.9042181337570504e+01  4.6750431676616799e+01  4.0828952840859145e+01  4.2323704854833110e+01  4.3896289133097788e+01  4.5506705774298752e+01  4.7114158573437599e+01  4.8682078183070836e+01  5.0181064460181410e+01  5.1590300190553805e+01  5.2897469672639993e+01  5.4097677365131240e+01  5.5191880150213393e+01  5.6185240561250417e+01  5.7085650381221257e+01  5.7902536056794581e+01  5.8645963354899841e+01  5.9326007419676905e+01  5.9952334144159657e+01  6.0533937002167811e+01  6.1078980649934245e+01  6.1594712740672897e+01  6.2087415347853849e+01  6.2562375829572964e+01  6.3023863561968888e+01  6.3475103875387241e+01  6.3918244069662123e+01  6.4354308913190678e+01  6.4783144848477761e+01  6.5203353476481226e+01  6.5612215959303015e+01  6.6005610896581402e+01  6.6377929094341340e+01  6.6721989520702508e+01  6.7028961674156747e+01  6.7288300598675718e+01  6.7487701865596961e+01  6.7613084989044950e+01  6.7648614931217651e+01  6.7576772613441548e+01  6.7378486864909618e+01  6.7033342620912407e+01  6.6519884969789473e+01  6.5816049336455052e+01  6.4899771943085881e+01  6.3749885905604764e+01  6.2347513312596135e+01  6.0678369041316579e+01  5.8736778344226401e+01  5.6532892920223645e+01  5.4105810034128972e+01  5.1546625376048624e+01  4.9040615422734255e+01  4.0329192410376642e+01  4.1807630283675039e+01  4.3362155524846408e+01  4.4959932820612778e+01  4.6566867396714805e+01  4.8151309579968839e+01  4.9686438928809785e+01  5.1151713282641026e+01  5.2533258166600028e+01  5.3823438687199868e+01  5.5019925704772689e+01  5.6124548805163109e+01  5.7142150345048975e+01  5.8079567394580259e+01  5.8944796439875148e+01  5.9746347310151542e+01  6.0492765900050820e+01  6.1192294016193344e+01  6.1852633085036047e+01  6.2480781870572550e+01  6.3082923726306298e+01  6.3664344519520242e+01  6.4229367390151666e+01  6.4781294652436472e+01  6.5322350410858945e+01  6.5853619967472241e+01  6.6374984006729136e+01  6.6885047014561835e+01  6.7381060556149365e+01  6.7858843007920200e+01  6.8312698194741159e+01  6.8735336180068586e+01  6.9117800229530062e+01  6.9449404734327430e+01  6.9717689642028944e+01  6.9908397698794914e+01  7.0005481584006091e+01  6.9991148934947560e+01  6.9845954663205362e+01  6.9548952711587475e+01  6.9077925357883771e+01  6.8409721141409065e+01  6.7520759777830818e+01  6.6387817503955603e+01  6.4989313158982753e+01  6.3307515339639195e+01  6.1332455362579296e+01  5.9068963323276961e+01  5.6549375949258227e+01  5.3855722598132147e+01  5.1160272814437420e+01  3.9892603575064278e+01  4.1365204506656148e+01  4.2911032147677226e+01  4.4502664543892905e+01  4.6111330204295321e+01  4.7709654076942300e+01  4.9273537388954828e+01  5.0783479599946794e+01  5.2225165730322182e+01  5.3589421257095310e+01  5.4871712225896751e+01  5.6071387683988107e+01  5.7190830773353248e+01  5.8234635115907018e+01  5.9208873783866373e+01  6.0120489161735136e+01  6.0976805883511098e+01  6.1785154222010696e+01  6.2552584788016411e+01  6.3285654148473199e+01  6.3990262624535994e+01  6.4671528468919846e+01  6.5333685878765721e+01  6.5979997363198464e+01  6.6612673639555041e+01  6.7232796427493838e+01  6.7840241286397017e+01  6.8433599065593938e+01  6.9010095692561023e+01  6.9565510977184701e+01  7.0094097923215415e+01  7.0588504749895762e+01  7.1039702468437909e+01  7.1436921444828670e+01  7.1767600926361922e+01  7.2017356040699568e+01  7.2169967376479661e+01  7.2207399131629273e+01  7.2109853460783071e+01  7.1855872099159413e+01  7.1422503641655283e+01  7.0785569885357361e+01  6.9920094459424902e+01  6.8801014047137770e+01  6.7404398542155121e+01  6.5709598506281807e+01  6.3703080539312822e+01  6.1385299211660545e+01  5.8783010861787659e+01  5.5970635209789798e+01  5.3109230047789865e+01  3.9511687065230859e+01  4.0986023202528365e+01  4.2530060506979616e+01  4.4120561422122947e+01  4.5733023502693541e+01  4.7343724233453621e+01  4.8931180895638136e+01  5.0477290855098325e+01  5.1967970669164274e+01  5.3393321840094387e+01  5.4747416042212983e+01  5.6027825706397714e+01  5.7235020898782125e+01  5.8371728949735