<?xml version="1.0"?>
<VTKFile type="UnstructuredGrid"  version="0.1"  >
<UnstructuredGrid>
<Piece  NumberOfPoints="20251" NumberOfCells="40000">
<Points>
<DataArray  type="Float64"  NumberOfComponents="3"  format="ascii">0 0 0  0.02 0 0  0.04 0 0  0.06 0 0  0.08 0 0  0.1 0 0  0.12 0 0  0.14 0 0  0.16 0 0  0.18 0 0  0.2 0 0  0.22 0 0  0.24 0 0  0.26 0 0  0.28 0 0  0.3 0 0  0.32 0 0  0.34 0 0  0.36 0 0  0.38 0 0  0.4 0 0  0.42 0 0  0.44 0 0  0.46 0 0  0.48 0 0  0.5 0 0  0.52 0 0  0.54 0 0  0.5600000000000001 0 0  0.58 0 0  0.6 0 0  0.62 0 0  0.64 0 0  0.66 0 0  0.68 0 0  0.7 0 0  0.72 0 0  0.74 0 0  0.76 0 0  0.78 0 0  0.8 0 0  0.82 0 0  0.84 0 0  0.86 0 0  0.88 0 0  0.9 0 0  0.92 0 0  0.9399999999999999 0 0  0.96 0 0  0.98 0 0  1 0 0  1.02 0 0  1.04 0 0  1.06 0 0  1.08 0 0  1.1 0 0  1.12 0 0  1.14 0 0  1.16 0 0  1.18 0 0  1.2 0 0  1.22 0 0  1.24 0 0  1.26 0 0  1.28 0 0  1.3 0 0  1.32 0 0  1.34 0 0  1.36 0 0  1.38 0 0  1.4 0 0  1.42 0 0  1.44 0 0  1.46 0 0  1.48 0 0  1.5 0 0  1.52 0 0  1.54 0 0  1.56 0 0  1.58 0 0  1.6 0 0  1.62 0 0  1.64 0 0  1.66 0 0  1.68 0 0  1.7 0 0  1.72 0 0  1.74 0 0  1.76 0 0  1.78 0 0  1.8 0 0  1.82 0 0  1.84 0 0  1.86 0 0  1.88 0 0  1.9 0 0  1.92 0 0  1.94 0 0  1.96 0 0  1.98 0 0  2 0 0  2.02 0 0  2.04 0 0  2.06 0 0  2.08 0 0  2.1 0 0  2.12 0 0  2.14 0 0  2.16 0 0  2.18 0 0  2.2 0 0  2.22 0 0  2.24 0 0  2.26 0 0  2.28 0 0  2.3 0 0  2.32 0 0  2.34 0 0  2.36 0 0  2.38 0 0  2.4 0 0  2.42 0 0  2.44 0 0  2.46 0 0  2.48 0 0  2.5 0 0  2.52 0 0  2.54 0 0  2.56 0 0  2.58 0 0  2.6 0 0  2.62 0 0  2.64 0 0  2.66 0 0  2.68 0 0  2.7 0 0  2.72 0 0  2.74 0 0  2.76 0 0  2.78 0 0  2.8 0 0  2.82 0 0  2.84 0 0  2.86 0 0  2.88 0 0  2.9 0 0  2.92 0 0  2.94 0 0  2.96 0 0  2.98 0 0  3 0 0  3.02 0 0  3.04 0 0  3.06 0 0  3.08 0 0  3.1 0 0  3.12 0 0  3.14 0 0  3.16 0 0  3.18 0 0  3.2 0 0  3.22 0 0  3.24 0 0  3.26 0 0  3.28 0 0  3.3 0 0  3.32 0 0  3.34 0 0  3.36 0 0  3.38 0 0  3.4 0 0  3.42 0 0  3.44 0 0  3.46 0 0  3.48 0 0  3.5 0 0  3.52 0 0  3.54 0 0  3.56 0 0  3.58 0 0  3.6 0 0  3.62 0 0  3.64 0 0  3.66 0 0  3.68 0 0  3.7 0 0  3.72 0 0  3.74 0 0  3.76 0 0  3.78 0 0  3.8 0 0  3.82 0 0  3.84 0 0  3.86 0 0  3.88 0 0  3.9 0 0  3.92 0 0  3.94 0 0  3.96 0 0  3.98 0 0  4 0 0  0 0.02 0  0.02 0.02 0  0.04 0.02 0  0.06 0.02 0  0.08 0.02 0  0.1 0.02 0  0.12 0.02 0  0.14 0.02 0  0.16 0.02 0  0.18 0.02 0  0.2 0.02 0  0.22 0.02 0  0.24 0.02 0  0.26 0.02 0  0.28 0.02 0  0.3 0.02 0  0.32 0.02 0  0.34 0.02 0  0.36 0.02 0  0.38 0.02 0  0.4 0.02 0  0.42 0.02 0  0.44 0.02 0  0.46 0.02 0  0.48 0.02 0  0.5 0.02 0  0.52 0.02 0  0.54 0.02 0  0.5600000000000001 0.02 0  0.58 0.02 0  0.6 0.02 0  0.62 0.02 0  0.64 0.02 0  0.66 0.02 0  0.68 0.02 0  0.7 0.02 0  0.72 0.02 0  0.74 0.02 0  0.76 0.02 0  0.78 0.02 0  0.8 0.02 0  0.82 0.02 0  0.84 0.02 0  0.86 0.02 0  0.88 0.02 0  0.9 0.02 0  0.92 0.02 0  0.9399999999999999 0.02 0  0.96 0.02 0  0.98 0.02 0  1 0.02 0  1.02 0.02 0  1.04 0.02 0  1.06 0.02 0  1.08 0.02 0  1.1 0.02 0  1.12 0.02 0  1.14 0.02 0  1.16 0.02 0  1.18 0.02 0  1.2 0.02 0  1.22 0.02 0  1.24 0.02 0  1.26 0.02 0  1.28 0.02 0  1.3 0.02 0  1.32 0.02 0  1.34 0.02 0  1.36 0.02 0  1.38 0.02 0  1.4 0.02 0  1.42 0.02 0  1.44 0.02 0  1.46 0.02 0  1.48 0.02 0  1.5 0.02 0  1.52 0.02 0  1.54 0.02 0  1.56 0.02 0  1.58 0.02 0  1.6 0.02 0  1.62 0.02 0  1.64 0.02 0  1.66 0.02 0  1.68 0.02 0  1.7 0.02 0  1.72 0.02 0  1.74 0.02 0  1.76 0.02 0  1.78 0.02 0  1.8 0.02 0  1.82 0.02 0  1.84 0.02 0  1.86 0.02 0  1.88 0.02 0  1.9 0.02 0  1.92 0.02 0  1.94 0.02 0  1.96 0.02 0  1.98 0.02 0  2 0.02 0  2.02 0.02 0  2.04 0.02 0  2.06 0.02 0  2.08 0.02 0  2.1 0.02 0  2.12 0.02 0  2.14 0.02 0  2.16 0.02 0  2.18 0.02 0  2.2 0.02 0  2.22 0.02 0  2.24 0.02 0  2.26 0.02 0  2.28 0.02 0  2.3 0.02 0  2.32 0.02 0  2.34 0.02 0  2.36 0.02 0  2.38 0.02 0  2.4 0.02 0  2.42 0.02 0  2.44 0.02 0  2.46 0.02 0  2.48 0.02 0  2.5 0.02 0  2.52 0.02 0  2.54 0.02 0  2.56 0.02 0  2.58 0.02 0  2.6 0.02 0  2.62 0.02 0  2.64 0.02 0  2.66 0.02 0  2.68 0.02 0  2.7 0.02 0  2.72 0.02 0  2.74 0.02 0  2.76 0.02 0  2.78 0.02 0  2.8 0.02 0  2.82 0.02 0  2.84 0.02 0  2.86 0.02 0  2.88 0.02 0  2.9 0.02 0  2.92 0.02 0  2.94 0.02 0  2.96 0.02 0  2.98 0.02 0  3 0.02 0  3.02 0.02 0  3.04 0.02 0  3.06 0.02 0  3.08 0.02 0  3.1 0.02 0  3.12 0.02 0  3.14 0.02 0  3.16 0.02 0  3.18 0.02 0  3.2 0.02 0  3.22 0.02 0  3.24 0.02 0  3.26 0.02 0  3.28 0.02 0  3.3 0.02 0  3.32 0.02 0  3.34 0.02 0  3.36 0.02 0  3.38 0.02 0  3.4 0.02 0  3.42 0.02 0  3.44 0.02 0  3.46 0.02 0  3.48 0.02 0  3.5 0.02 0  3.52 0.02 0  3.54 0.02 0  3.56 0.02 0  3.58 0.02 0  3.6 0.02 0  3.62 0.02 0  3.64 0.02 0  3.66 0.02 0  3.68 0.02 0  3.7 0.02 0  3.72 0.02 0  3.74 0.02 0  3.76 0.02 0  3.78 0.02 0  3.8 0.02 0  3.82 0.02 0  3.84 0.02 0  3.86 0.02 0  3.88 0.02 0  3.9 0.02 0  3.92 0.02 0  3.94 0.02 0  3.96 0.02 0  3.98 0.02 0  4 0.02 0  0 0.04 0  0.02 0.04 0  0.04 0.04 0  0.06 0.04 0  0.08 0.04 0  0.1 0.04 0  0.12 0.04 0  0.14 0.04 0  0.16 0.04 0  0.18 0.04 0  0.2 0.04 0  0.22 0.04 0  0.24 0.04 0  0.26 0.04 0  0.28 0.04 0  0.3 0.04 0  0.32 0.04 0  0.34 0.04 0  0.36 0.04 0  0.38 0.04 0  0.4 0.04 0  0.42 0.04 0  0.44 0.04 0  0.46 0.04 0  0.48 0.04 0  0.5 0.04 0  0.52 0.04 0  0.54 0.04 0  0.5600000000000001 0.04 0  0.58 0.04 0  0.6 0.04 0  0.62 0.04 0  0.64 0.04 0  0.66 0.04 0  0.68 0.04 0  0.7 0.04 0  0.72 0.04 0  0.74 0.04 0  0.76 0.04 0  0.78 0.04 0  0.8 0.04 0  0.82 0.04 0  0.84 0.04 0  0.86 0.04 0  0.88 0.04 0  0.9 0.04 0  0.92 0.04 0  0.9399999999999999 0.04 0  0.96 0.04 0  0.98 0.04 0  1 0.04 0  1.02 0.04 0  1.04 0.04 0  1.06 0.04 0  1.08 0.04 0  1.1 0.04 0  1.12 0.04 0  1.14 0.04 0  1.16 0.04 0  1.18 0.04 0  1.2 0.04 0  1.22 0.04 0  1.24 0.04 0  1.26 0.04 0  1.28 0.04 0  1.3 0.04 0  1.32 0.04 0  1.34 0.04 0  1.36 0.04 0  1.38 0.04 0  1.4 0.04 0  1.42 0.04 0  1.44 0.04 0  1.46 0.04 0  1.48 0.04 0  1.5 0.04 0  1.52 0.04 0  1.54 0.04 0  1.56 0.04 0  1.58 0.04 0  1.6 0.04 0  1.62 0.04 0  1.64 0.04 0  1.66 0.04 0  1.68 0.04 0  1.7 0.04 0  1.72 0.04 0  1.74 0.04 0  1.76 0.04 0  1.78 0.04 0  1.8 0.04 0  1.82 0.04 0  1.84 0.04 0  1.86 0.04 0  1.88 0.04 0  1.9 0.04 0  1.92 0.04 0  1.94 0.04 0  1.96 0.04 0  1.98 0.04 0  2 0.04 0  2.02 0.04 0  2.04 0.04 0  2.06 0.04 0  2.08 0.04 0  2.1 0.04 0  2.12 0.04 0  2.14 0.04 0  2.16 0.04 0  2.18 0.04 0  2.2 0.04 0  2.22 0.04 0  2.24 0.04 0  2.26 0.04 0  2.28 0.04 0  2.3 0.04 0  2.32 0.04 0  2.34 0.04 0  2.36 0.04 0  2.38 0.04 0  2.4 0.04 0  2.42 0.04 0  2.44 0.04 0  2.46 0.04 0  2.48 0.04 0  2.5 0.04 0  2.52 0.04 0  2.54 0.04 0  2.56 0.04 0  2.58 0.04 0  2.6 0.04 0  2.62 0.04 0  2.64 0.04 0  2.66 0.04 0  2.68 0.04 0  2.7 0.04 0  2.72 0.04 0  2.74 0.04 0  2.76 0.04 0  2.78 0.04 0  2.8 0.04 0  2.82 0.04 0  2.84 0.04 0  2.86 0.04 0  2.88 0.04 0  2.9 0.04 0  2.92 0.04 0  2.94 0.04 0  2.96 0.04 0  2.98 0.04 0  3 0.04 0  3.02 0.04 0  3.04 0.04 0  3.06 0.04 0  3.08 0.04 0  3.1 0.04 0  3.12 0.04 0  3.14 0.04 0  3.16 0.04 0  3.18 0.04 0  3.2 0.04 0  3.22 0.04 0  3.24 0.04 0  3.26 0.04 0  3.28 0.04 0  3.3 0.04 0  3.32 0.04 0  3.34 0.04 0  3.36 0.04 0  3.38 0.04 0  3.4 0.04 0  3.42 0.04 0  3.44 0.04 0  3.46 0.04 0  3.48 0.04 0  3.5 0.04 0  3.52 0.04 0  3.54 0.04 0  3.56 0.04 0  3.58 0.04 0  3.6 0.04 0  3.62 0.04 0  3.64 0.04 0  3.66 0.04 0  3.68 0.04 0  3.7 0.04 0  3.72 0.04 0  3.74 0.04 0  3.76 0.04 0  3.78 0.04 0  3.8 0.04 0  3.82 0.04 0  3.84 0.04 0  3.86 0.04 0  3.88 0.04 0  3.9 0.04 0  3.92 0.04 0  3.94 0.04 0  3.96 0.04 0  3.98 0.04 0  4 0.04 0  0 0.06 0  0.02 0.06 0  0.04 0.06 0  0.06 0.06 0  0.08 0.06 0  0.1 0.06 0  0.12 0.06 0  0.14 0.06 0  0.16 0.06 0  0.18 0.06 0  0.2 0.06 0  0.22 0.06 0  0.24 0.06 0  0.26 0.06 0  0.28 0.06 0  0.3 0.06 0  0.32 0.06 0  0.34 0.06 0  0.36 0.06 0  0.38 0.06 0  0.4 0.06 0  0.42 0.06 0  0.44 0.06 0  0.46 0.06 0  0.48 0.06 0  0.5 0.06 0  0.52 0.06 0  0.54 0.06 0  0.5600000000000001 0.06 0  0.58 0.06 0  0.6 0.06 0  0.62 0.06 0  0.64 0.06 0  0.66 0.06 0  0.68 0.06 0  0.7 0.06 0  0.72 0.06 0  0.74 0.06 0  0.76 0.06 0  0.78 0.06 0  0.8 0.06 0  0.82 0.06 0  0.84 0.06 0  0.86 0.06 0  0.88 0.06 0  0.9 0.06 0  0.92 0.06 0  0.9399999999999999 0.06 0  0.96 0.06 0  0.98 0.06 0  1 0.06 0  1.02 0.06 0  1.04 0.06 0  1.06 0.06 0  1.08 0.06 0  1.1 0.06 0  1.12 0.06 0  1.14 0.06 0  1.16 0.06 0  1.18 0.06 0  1.2 0.06 0  1.22 0.06 0  1.24 0.06 0  1.26 0.06 0  1.28 0.06 0  1.3 0.06 0  1.32 0.06 0  1.34 0.06 0  1.36 0.06 0  1.38 0.06 0  1.4 0.06 0  1.42 0.06 0  1.44 0.06 0  1.46 0.06 0  1.48 0.06 0  1.5 0.06 0  1.52 0.06 0  1.54 0.06 0  1.56 0.06 0  1.58 0.06 0  1.6 0.06 0  1.62 0.06 0  1.64 0.06 0  1.66 0.06 0  1.68 0.06 0  1.7 0.06 0  1.72 0.06 0  1.74 0.06 0  1.76 0.06 0  1.78 0.06 0  1.8 0.06 0  1.82 0.06 0  1.84 0.06 0  1.86 0.06 0  1.88 0.06 0  1.9 0.06 0  1.92 0.06 0  1.94 0.06 0  1.96 0.06 0  1.98 0.06 0  2 0.06 0  2.02 0.06 0  2.04 0.06 0  2.06 0.06 0  2.08 0.06 0  2.1 0.06 0  2.12 0.06 0  2.14 0.06 0  2.16 0.06 0  2.18 0.06 0  2.2 0.06 0  2.22 0.06 0  2.24 0.06 0  2.26 0.06 0  2.28 0.06 0  2.3 0.06 0  2.32 0.06 0  2.34 0.06 0  2.36 0.06 0  2.38 0.06 0  2.4 0.06 0  2.42 0.06 0  2.44 0.06 0  2.46 0.06 0  2.48 0.06 0  2.5 0.06 0  2.52 0.06 0  2.54 0.06 0  2.56 0.06 0  2.58 0.06 0  2.6 0.06 0  2.62 0.06 0  2.64 0.06 0  2.66 0.06 0  2.68 0.06 0  2.7 0.06 0  2.72 0.06 0  2.74 0.06 0  2.76 0.06 0  2.78 0.06 0  2.8 0.06 0  2.82 0.06 0  2.84 0.06 0  2.86 0.06 0  2.88 0.06 0  2.9 0.06 0  2.92 0.06 0  2.94 0.06 0  2.96 0.06 0  2.98 0.06 0  3 0.06 0  3.02 0.06 0  3.04 0.06 0  3.06 0.06 0  3.08 0.06 0  3.1 0.06 0  3.12 0.06 0  3.14 0.06 0  3.16 0.06 0  3.18 0.06 0  3.2 0.06 0  3.22 0.06 0  3.24 0.06 0  3.26 0.06 0  3.28 0.06 0  3.3 0.06 0  3.32 0.06 0  3.34 0.06 0  3.36 0.06 0  3.38 0.06 0  3.4 0.06 0  3.42 0.06 0  3.44 0.06 0  3.46 0.06 0  3.48 0.06 0  3.5 0.06 0  3.52 0.06 0  3.54 0.06 0  3.56 0.06 0  3.58 0.06 0  3.6 0.06 0  3.62 0.06 0  3.64 0.06 0  3.66 0.06 0  3.68 0.06 0  3.7 0.06 0  3.72 0.06 0  3.74 0.06 0  3.76 0.06 0  3.78 0.06 0  3.8 0.06 0  3.82 0.06 0  3.84 0.06 0  3.86 0.06 0  3.88 0.06 0  3.9 0.06 0  3.92 0.06 0  3.94 0.06 0  3.96 0.06 0  3.98 0.06 0  4 0.06 0  0 0.08 0  0.02 0.08 0
[...]
<PointData  Vectors="f_1555"> 
<DataArray  type="Float64"  Name="f_1555"  NumberOfComponents="3" format="ascii">0.0000000000000000e+00 0.0000000000000000e+00 0.0000000000000000e+00  -5.8514572478251320e-03 -4.3736029120435456e-03 0.0000000000000000e+00  -9.6314922856010864e-03 -6.8995777338360020e-03 0.0000000000000000e+00  -1.3096101119643646e-02 -8.8222778741194521e-03 0.0000000000000000e+00  -1.6466365739844266e-02 -1.0482619934926192e-02 0.0000000000000000e+00  -1.9801445713519140e-02 -1.2021504463562604e-02 0.0000000000000000e+00  -2.3127335176041288e-02 -1.3515788282333671e-02 0.0000000000000000e+00  -2.6456303731768563e-02 -1.5013999963221057e-02 0.0000000000000000e+00  -2.9793915018177505e-02 -1.6548884479130738e-02 0.0000000000000000e+00  -3.3142364712949859e-02 -1.8143411337860973e-02 0.0000000000000000e+00  -3.6502119861249141e-02 -1.9814116910587341e-02 0.0000000000000000e+00  -3.9872762361264379e-02 -2.1573110049055228e-02 0.0000000000000000e+00  -4.3253443823720136e-02 -2.3429345111765934e-02 0.0000000000000000e+00  -4.6643138920639503e-02 -2.5389467707979056e-02 0.0000000000000000e+00  -5.0040788702882061e-02 -2.7458397839196007e-02 0.0000000000000000e+00  -5.3445381407452482e-02 -2.9639744411827904e-02 0.0000000000000000e+00  -5.6855996683704446e-02 -3.1936107407766035e-02 0.0000000000000000e+00  -6.0271827957330763e-02 -3.4349302837111094e-02 0.0000000000000000e+00  -6.3692191562485428e-02 -3.6880533171615791e-02 0.0000000000000000e+00  -6.7116527838966211e-02 -3.9530518378220726e-02 0.0000000000000000e+00  -7.0544397392579880e-02 -4.2299597894470353e-02 0.0000000000000000e+00  -7.3975474521016216e-02 -4.5187810788144885e-02 0.0000000000000000e+00  -7.7409539075146999e-02 -4.8194959280894172e-02 0.0000000000000000e+00  -8.0846467567837518e-02 -5.1320659411559673e-02 0.0000000000000000e+00  -8.4286224051058067e-02 -5.4564381639179760e-02 0.0000000000000000e+00  -8.7728851093869256e-02 -5.7925483494856898e-02 0.0000000000000000e+00  -9.1174461070635510e-02 -6.1403235894043916e-02 0.0000000000000000e+00  -9.4623227887258562e-02 -6.4996844356581762e-02 0.0000000000000000e+00  -9.8075379218762859e-02 -6.8705466111234625e-02 0.0000000000000000e+00  -1.0153118929498707e-01 -7.2528223857633078e-02 0.0000000000000000e+00  -1.0499097224650704e-01 -7.6464216802968610e-02 0.0000000000000000e+00  -1.0845507600637218e-01 -8.0512529470600461e-02 0.0000000000000000e+00  -1.1192387675222704e-01 -8.4672238683826423e-02 0.0000000000000000e+00  -1.1539777386620642e-01 -8.8942419053912786e-02 0.0000000000000000e+00  -1.1887718538548378e-01 -9.3322147242347539e-02 0.0000000000000000e+00  -1.2236254391372696e-01 -9.7810505219711408e-02 0.0000000000000000e+00  -1.2585429296242717e-01 -1.0240658270498514e-01 0.0000000000000000e+00  -1.2935288369072701e-01 -1.0710947893760255e-01 0.0000000000000000e+00  -1.3285877201271254e-01 -1.1191830390866268e-01 0.0000000000000000e+00  -1.3637241604194986e-01 -1.1683217915631240e-01 0.0000000000000000e+00  -1.3989427384419628e-01 -1.2185023821254327e-01 0.0000000000000000e+00  -1.4342480147059100e-01 -1.2697162677384027e-01 0.0000000000000000e+00  -1.4696445124515120e-01 -1.3219550265574184e-01 0.0000000000000000e+00  -1.5051367028200413e-01 -1.3752103558100123e-01 0.0000000000000000e+00  -1.5407289920942904e-01 -1.4294740684233753e-01 0.0000000000000000e+00  -1.5764257107942786e-01 -1.4847380887345493e-01 0.0000000000000000e+00  -1.6122311044316781e-01 -1.5409944475586726e-01 0.0000000000000000e+00  -1.6481493257421453e-01 -1.5982352768390692e-01 0.0000000000000000e+00  -1.6841844282299698e-01 -1.6564528040596846e-01 0.0000000000000000e+00  -1.7203403608739282e-01 -1.7156393465640885e-01 0.0000000000000000e+00  -1.7566209638569913e-01 -1.7757873058949350e-01 0.0000000000000000e+00  -1.7930299651954329e-01 -1.8368891622424888e-01 0.0000000000000000e+00  -1.8295709781549918e-01 -1.8989374690697708e-01 0.0000000000000000e+00  -1.8662474993529848e-01 -1.9619248479645143e-01 0.0000000000000000e+00  -1.9030629074556665e-01 -2.0258439837537548e-01 0.0000000000000000e+00  -1.9400204623897471e-01 -2.0906876199051708e-01 0.0000000000000000e+00  -1.9771233049957654e-01 -2.1564485542297321e-01 0.0000000000000000e+00  -2.0143744570590899e-01 -2.2231196348925492e-01 0.0000000000000000e+00  -2.0517768216616347e-01 -2.2906937567326685e-01 0.0000000000000000e+00  -2.0893331838040394e-01 -2.3591638578877475e-01 0.0000000000000000e+00  -2.1270462112540947e-01 -2.4285229167158154e-01 0.0000000000000000e+00  -2.1649184555826134e-01 -2.4987639490035027e-01 0.0000000000000000e+00  -2.2029523533528253e-01 -2.5698800054480581e-01 0.0000000000000000e+00  -2.2411502274337639e-01 -2.6418641693990191e-01 0.0000000000000000e+00  -2.2795142884120065e-01 -2.7147095548444727e-01 0.0000000000000000e+00  -2.3180466360796151e-01 -2.7884093046263131e-01 0.0000000000000000e+00  -2.3567492609792248e-01 -2.8629565888686992e-01 0.0000000000000000e+00  -2.3956240459899586e-01 -2.9383446036039951e-01 0.0000000000000000e+00  -2.4346727679402710e-01 -3.0145665695807472e-01 0.0000000000000000e+00  -2.4738970992359482e-01 -3.0916157312386700e-01 0.0000000000000000e+00  -2.5132986094933829e-01 -3.1694853558362057e-01 0.0000000000000000e+00  -2.5528787671698400e-01 -3.2481687327167880e-01 0.0000000000000000e+00  -2.5926389411839046e-01 -3.3276591727007265e-01 0.0000000000000000e+00  -2.6325804025205091e-01 -3.4079500075902924e-01 0.0000000000000000e+00  -2.6727043258160288e-01 -3.4890345897763697e-01 0.0000000000000000e+00  -2.7130117909198675e-01 -3.5709062919357942e-01 0.0000000000000000e+00  -2.7535037844297289e-01 -3.6535585068092491e-01 0.0000000000000000e+00  -2.7941812011984879e-01 -3.7369846470503248e-01 0.0000000000000000e+00  -2.8350448458111266e-01 -3.8211781451370658e-01 0.0000000000000000e+00  -2.8760954340307043e-01 -3.9061324533380148e-01 0.0000000000000000e+00  -2.9173335942127510e-01 -3.9918410437254215e-01 0.0000000000000000e+00  -2.9587598686878031e-01 -4.0782974082289086e-01 0.0000000000000000e+00  -3.0003747151120980e-01 -4.1654950587234790e-01 0.0000000000000000e+00  -3.0421785077866864e-01 -4.2534275271462973e-01 0.0000000000000000e+00  -3.0841715389453833e-01 -4.3420883656371934e-01 0.0000000000000000e+00  -3.1263540200121626e-01 -4.4314711466983436e-01 0.0000000000000000e+00  -3.1687260828286995e-01 -4.5215694633690062e-01 0.0000000000000000e+00  -3.2112877808528617e-01 -4.6123769294116140e-01 0.0000000000000000e+00  -3.2540390903290056e-01 -4.7038871795059256e-01 0.0000000000000000e+00  -3.2969799114310017e-01 -4.7960938694482680e-01 0.0000000000000000e+00  -3.3401100693789221e-01 -4.8889906763532520e-01 0.0000000000000000e+00  -3.3834293155303397e-01 -4.9825712988556131e-01 0.0000000000000000e+00  -3.4269373284472021e-01 -5.0768294573101380e-01 0.0000000000000000e+00  -3.4706337149392219e-01 -5.1717588939878500e-01 0.0000000000000000e+00  -3.5145180110847224e-01 -5.2673533732668765e-01 0.0000000000000000e+00  -3.5585896832298408e-01 -5.3636066818166162e-01 0.0000000000000000e+00  -3.6028481289669811e-01 -5.4605126287740069e-01 0.0000000000000000e+00  -3.6472926780933601e-01 -5.5580650459108760e-01 0.0000000000000000e+00  -3.6919225935504707e-01 -5.6562577877914877e-01 0.0000000000000000e+00  -3.7367370723452470e-01 -5.7550847319195553e-01 0.0000000000000000e+00  -3.7817352464536669e-01 -5.8545397788740783e-01 0.0000000000000000e+00  -3.8269161837075050e-01 -5.9546168524335230e-01 0.0000000000000000e+00  -3.8722788886649073e-01 -6.0553098996878896e-01 0.0000000000000000e+00  -3.9178223034654081e-01 -6.1566128911383711e-01 0.0000000000000000e+00  -3.9635453086699923e-01 -6.2585198207843262e-01 0.0000000000000000e+00  -4.0094467240867426e-01 -6.3610247061973724e-01 0.0000000000000000e+00  -4.0555253095826010e-01 -6.4641215885824677e-01 0.0000000000000000e+00  -4.1017797658817312e-01 -6.5678045328259038e-01 0.0000000000000000e+00  -4.1482087353509056e-01 -6.6720676275301427e-01 0.0000000000000000e+00  -4.1948108027723596e-01 -6.7769049850355090e-01 0.0000000000000000e+00  -4.2415844961044785e-01 -6.8823107414287354e-01 0.0000000000000000e+00  -4.2885282872306751e-01 -6.9882790565384167e-01 0.0000000000000000e+00  -4.3356405926967806e-01 -7.0948041139174178e-01 0.0000000000000000e+00  -4.3829197744372411e-01 -7.2018801208123062e-01 0.0000000000000000e+00  -4.4303641404903987e-01 -7.3095013081198912e-01 0.0000000000000000e+00  -4.4779719457030831e-01 -7.4176619303309277e-01 0.0000000000000000e+00  -4.5257413924247619e-01 -7.5263562654610716e-01 0.0000000000000000e+00  -4.5736706311914282e-01 -7.6355786149691407e-01 0.0000000000000000e+00  -4.6217577613994204e-01 -7.7453233036627400e-01 0.0000000000000000e+00  -4.6700008319693370e-01 -7.8555846795912676e-01 0.0000000000000000e+00  -4.7183978420001910e-01 -7.9663571139263056e-01 0.0000000000000000e+00  -4.7669467414139610e-01 -8.0776350008293940e-01 0.0000000000000000e+00  -4.8156454315906505e-01 -8.1894127573070818e-01 0.0000000000000000e+00  -4.8644917659940035e-01 -8.3016848230531959e-01 0.0000000000000000e+00  -4.9134835507879859e-01 -8.4144456602781348e-01 0.0000000000000000e+00  -4.9626185454441951e-01 -8.5276897535249896e-01 0.0000000000000000e+00  -5.0118944633403162e-01 -8.6414116094721893e-01 0.0000000000000000e+00  -5.0613089723498317e-01 -8.7556057567223322e-01 0.0000000000000000e+00  -5.1108596954231611e-01 -8.8702667455767270e-01 0.0000000000000000e+00  -5.1605442111605071e-01 -8.9853891477951187e-01 0.0000000000000000e+00  -5.2103600543766904e-01 -9.1009675563399073e-01 0.0000000000000000e+00  -5.2603047166583983e-01 -9.2169965851040958e-01 0.0000000000000000e+00  -5.3103756469142993e-01 -9.3334708686220247e-01 0.0000000000000000e+00  -5.3605702519186760e-01 -9.4503850617618046e-01 0.0000000000000000e+00  -5.4108858968493290e-01 -9.5677338393981892e-01 0.0000000000000000e+00  -5.4613199058207218e-01 -9.6855118960644393e-01 0.0000000000000000e+00  -5.5118695624136149e-01 -9.8037139455814959e-01 0.0000000000000000e+00  -5.5625321102026359e-01 -9.9223347206625845e-01 0.0000000000000000e+00  -5.6133047532837210e-01 -1.0041368972491089e+00 0.0000000000000000e+00  -5.6641846568036880e-01 -1.0160811470269311e+00 0.0000000000000000e+00  -5.7151689474947676e-01 -1.0280657000735329e+00 0.0000000000000000e+00  -5.7662547142175802e-01 -1.0400900367645076e+00 0.0000000000000000e+00  -5.8174390085167271e-01 -1.0521536391216162e+00 0.0000000000000000e+00  -5.8687188451941241e-01 -1.0642559907529912e+00 0.0000000000000000e+00  -5.9200912029062447e-01 -1.0763965767887529e+00 0.0000000000000000e+00  -5.9715530247926885e-01 -1.0885748838116132e+00 0.0000000000000000e+00  -6.0231012191450140e-01 -1.1007903997820001e+00 0.0000000000000000e+00  -6.0747326601265172e-01 -1.1130426139572138e+00 0.0000000000000000e+00  -6.1264441885556753e-01 -1.1253310168040993e+00 0.0000000000000000e+00  -6.1782326127684395e-01 -1.1376550999047041e+00 0.0000000000000000e+00  -6.2300947095773607e-01 -1.1500143558543849e+00 0.0000000000000000e+00  -6.2820272253488263e-01 -1.1624082781518350e+00 0.0000000000000000e+00  -6.3340268772235364e-01 -1.1748363610805270e+00 0.0000000000000000e+00  -6.3860903545098024e-01 -1.1872980995811182e+00 0.0000000000000000e+00  -6.4382143202844033e-01 -1.1997929891144457e+00 0.0000000000000000e+00  -6.4903954132417030e-01 -1.2123205255148561e+00 0.0000000000000000e+00  -6.5426302498386335e-01 -1.2248802048337823e+00 0.0000000000000000e+00  -6.5949154267910792e-01 -1.2374715231737128e+00 0.0000000000000000e+00  -6.6472475239862927e-01 -1.2500939765129939e+00 0.0000000000000000e+00  -6.6996231078865176e-01 -1.2627470605223168e+00 0.0000000000000000e+00  -6.7520387355109457e-01 -1.2754302703742391e+00 0.0000000000000000e+00  -6.8044909590969516e-01 -1.2881431005477508e+00 0.0000000000000000e+00  -6.8569763315573340e-01 -1.3008850446307128e+00 0.0000000000000000e+00  -6.9094914128682960e-01 -1.3136555951240250e+00 0.0000000000000000e+00  -6.9620327775436541e-01 -1.3264542432526636e+00 0.0000000000000000e+00  -7.0145970233743338e-01 -1.3392804787903054e+00 0.0000000000000000e+00  -7.0671807816394916e-01 -1.3521337899062205e+00 0.0000000000000000e+00  -7.1197807290266923e-01 -1.3650136630455108e+00 0.0000000000000000e+00  -7.1723936015345624e-01 -1.3779195828567350e+00 0.0000000000000000e+00  -7.2250162106728355e-01 -1.3908510321845653e+00 0.0000000000000000e+00  -7.2776454623229336e-01 -1.4038074921495782e+00 0.0000000000000000e+00  -7.3302783786784642e-01 -1.4167884423427237e+00 0.0000000000000000e+00  -7.3829121237510986e-01 -1.4297933611687128e+00 0.0000000000000000e+00  -7.4355440330055789e-01 -1.4428217263808449e+00 0.0000000000000000e+00  -7.4881716477810223e-01 -1.4558730158600082e+00 0.0000000000000000e+00  -7.5407927552685150e-01 -1.4689467087033385e+00 0.0000000000000000e+00  -7.5934054349525892e-01 -1.4820422867039558e+00 0.0000000000000000e+00  -7.6460081125942903e-01 -1.4951592363233188e+00 0.0000000000000000e+00  -7.6985996230464815e-01 -1.5082970512833525e+00 0.0000000000000000e+00  -7.7511792834625493e-01 -1.5214552359384228e+00 0.0000000000000000e+00  -7.8037469788085922e-01 -1.5346333096300639e+00 0.0000000000000000e+00  -7.8563032620464013e-01 -1.5478308122837718e+00 0.0000000000000000e+00  -7.9088494719639635e-01 -1.5610473115825749e+00 0.0000000000000000e+00  -7.9613878724571741e-01 -1.5742824121544223e+00 0.0000000000000000e+00  -8.0139218182101479e-01 -1.5875357673518009e+00 0.0000000000000000e+00  -8.0664559533359770e-01 -1.6008070944010393e+00 0.0000000000000000e+00  -8.1189964518701685e-01 -1.6140961939850336e+00 0.0000000000000000e+00  -8.1715513124562944e-01 -1.6274029757446988e+00 0.0000000000000000e+00  -8.2241307248038209e-01 -1.6407274918218417e+00 0.0000000000000000e+00  -8.2767475337135754e-01 -1.6540699815591038e+00 0.0000000000000000e+00  -8.3294178398061280e-01 -1.6674309320732028e+00 0.0000000000000000e+00  -8.3821617986456964e-01 -1.6808111621018278e+00 0.0000000000000000e+00  -8.4350047199513156e-01 -1.6942119412397036e+00 0.0000000000000000e+00  -8.4879786436283322e-01 -1.7076351654352602e+00 0.0000000000000000e+00  -8.5411247199985818e-01 -1.7210836270164969e+00 0.0000000000000000e+00  -8.5944970499789097e-01 -1.7345614550917081e+00 0.0000000000000000e+00  -8.6481694394167608e-01 -1.7480748919827798e+00 0.0000000000000000e+00  -8.7022488773554529e-01 -1.7616338151031392e+00 0.0000000000000000e+00  -8.7569092167419460e-01 -1.7752552788254461e+00 0.0000000000000000e+00  -8.8125069764363040e-01 -1.7889761652345089e+00 0.0000000000000000e+00  -8.8699716657851080e-01 -1.8029554617129731e+00 0.0000000000000000e+00  0.0000000000000000e+00 0.0000000000000000e+00 0.0000000000000000e+00  -3.4872830488424395e-03 -2.7845413724166784e-03 0.0000000000000000e+00  -7.3302348155751401e-03 -5.3161862670709579e-03 0.0000000000000000e+00  -1.1014124333328643e-02 -7.3149213818145837e-03 0.0000000000000000e+00  -1.4513820879284699e-02 -9.0176632091885367e-03 0.0000000000000000e+00  -1.7903495609830788e-02 -1.0580428200751122e-02 0.0000000000000000e+00  -2.1229940333112915e-02 -1.2090474078067147e-02 0.0000000000000000e+00  -2.4520153631013664e-02 -1.3601225235234006e-02 0.0000000000000000e+00  -2.7790090736302071e-02 -1.5147912815454622e-02 0.0000000000000000e+00  -3.1049385009876963e-02 -1.6754860863822937e-02 0.0000000000000000e+00  -3.4303922436672803e-02 -1.8439360611483241e-02 0.0000000000000000e+00  -3.7557308837957611e-02 -2.0213933065400973e-02 0.0000000000000000e+00  -4.0811736468956673e-02 -2.2087739246504475e-02 0.0000000000000000e+00  -4.4068511772682138e-02 -2.4067504229475827e-02 0.0000000000000000e+00  -4.7328385284441957e-02 -2.6158147353290397e-02 0.0000000000000000e+00  -5.0591762289474575e-02 -2.8363226264996842e-02 0.0000000000000000e+00  -5.3858839530303883e-02 -3.0685258262174712e-02 0.0000000000000000e+00  -5.7129694893276337e-02 -3.3125958020563458e-02 0.0000000000000000e+00  -6.0404346544964939e-02 -3.5686416695294890e-02 0.0000000000000000e+00  -6.3682791852329348e-02 -3.8367238894865333e-02 0.0000000000000000e+00  -6.6965032719828732e-02 -4.1168648733337213e-02 0.0000000000000000e+00  -7.0251091689093353e-02 -4.4090572763056571e-02 0.0000000000000000e+00  -7.3541021700632689e-02 -4.7132705342536760e-02 0.0000000000000000e+00  -7.6834911484070845e-02 -5.0294560473542450e-02 0.0000000000000000e+00  -8.0132887930170246e-02 -5.3575513090058320e-02 0.0000000000000000e+00  -8.3435116387881217e-02 -5.6974832040402108e-02 0.0000000000000000e+00  -8.6741799551115079e-02 -6.0491706471303211e-02 0.0000000000000000e+00  -9.0053175407895897e-02 -6.4125266933947475e-02 0.0000000000000000e+00  -9.3369514590292760e-02 -6.7874602243603838e-02 0.0000000000000000e+00  -9.6691117368456925e-02 -7.1738772907450662e-02 0.0000000000000000e+00  -1.0001831046394077e-01 -7.5716821769739026e-02 0.0000000000000000e+00  -1.0335144380808786e-01 -7.9807782395663357e-02 0.0000000000000000e+00  -1.0669088733513991e-01 -8.4010685615530989e-02 0.0000000000000000e+00  -1.1003702787302777e-01 -8.8324564572080572e-02 0.0000000000000000e+00  -1.1339026617498872e-01 -9.2748458551068363e-02 0.0000000000000000e+00  -1.1675101412034802e-01 -9.7281415824835654e-02 0.0000000000000000e+00  -1.2011969210171917e-01 -1.0192249569776191e-01 0.0000000000000000e+00  -1.2349672660758197e-01 -1.0667076990924534e-01 0.0000000000000000e+00  -1.2688254800301302e-01 -1.1152532352258727e-01 0.0000000000000000e+00  -1.3027758850676718e-01 -1.1648525540569424e-01 0.0000000000000000e+00  -1.3368228035957175e-01 -1.2154967839093471e-01 0.0000000000000000e+00  -1.3709705417611459e-01 -1.2671771918607105e-01 0.0000000000000000e+00  -1.4052233747156820e-01 -1.3198851809536408e-01 0.0000000000000000e+00  -1.4395855335242880e-01 -1.3736122859926117e-01 0.0000000000000000e+00  -1.4740611936083289e-01 -1.4283501683216604e-01 0.0000000000000000e+00  -1.5086544646124128e-01 -1.4840906099034798e-01 0.0000000000000000e+00  -1.5433693815837218e-01 -1.5408255069584351e-01 0.0000000000000000e+00  -1.5782098973545533e-01 -1.5985468633702932e-01 0.0000000000000000e+00  -1.6131798760221819e-01 -1.6572467840224023e-01 0.0000000000000000e+00  -1.6482830874246060e-01 -1.7169174681922983e-01 0.0000000000000000e+00  -1.6835232025159336e-01 -1.7775512031031010e-01 0.0000000000000000e+00  -1.7189037895508424e-01 -1.8391403577056281e-01 0.0000000000000000e+00  -1.7544283109934777e-01 -1.9016773767450837e-01 0.0000000000000000e+00  -1.7901001210722081e-01 -1.9651547751497661e-01 0.0000000000000000e+00  -1.8259224639076782e-01 -2.0295651327659311e-01 0.0000000000000000e+00  -1.8618984721475082e-01 -2.0949010894522171e-01 0.0000000000000000e+00  -1.8980311660466992e-01 -2.1611553405384812e-01 0.0000000000000000e+00  -1.9343234529382822e-01 -2.2283206326471611e-01 0.0000000000000000e+00  -1.9707781270439284e-01 -2.2963897598700422e-01 0.0000000000000000e+00  -2.0073978695791278e-01 -2.3653555602893181e-01 0.0000000000000000e+00  -2.0441852491121115e-01 -2.4352109128289201e-01 0.0000000000000000e+00  -2.0811427221399287e-01 -2.5059487344199632e-01 0.0000000000000000e+00  -2.1182726338490165e-01 -2.5775619774627784e-01 0.0000000000000000e+00  -2.1555772190312064e-01 -2.6500436275671496e-01 0.0000000000000000e+00  -2.1930586031294105e-01 -2.7233867015519958e-01 0.0000000000000000e+00  -2.2307188033902453e-01 -2.7975842456857092e-01 0.0000000000000000e+00  -2.2685597301035854e-01 -2.8726293341485976e-01 0.0000000000000000e+00  -2.3065831879115048e-01 -2.9485150676993721e-01 0.0000000000000000e+00  -2.3447908771713125e-01 -3.0252345725282281e-01 0.0000000000000000e+00  -2.3831843953593732e-01 -3.1027809992798244e-01 0.0000000000000000e+00  -2.4217652385042168e-01 -3.1811475222303037e-01 0.0000000000000000e+00  -2.4605348026390333e-01 -3.2603273386033549e-01 0.0000000000000000e+00  -2.4994943852650822e-01 -3.3403136680112588e-01 0.0000000000000000e+00  -2.5386451868188048e-01 -3.4210997520077518e-01 0.0000000000000000e+00  -2.5779883121365599e-01 -3.5026788537404668e-01 0.0000000000000000e+00  -2.6175247719118705e