<?xml version="1.0"?>
<VTKFile type="UnstructuredGrid"  version="0.1"  >
<UnstructuredGrid>
<Piece  NumberOfPoints="20251" NumberOfCells="40000">
<Points>
<DataArray  type="Float64"  NumberOfComponents="3"  format="ascii">0 0 0  0.02 0 0  0.04 0 0  0.06 0 0  0.08 0 0  0.1 0 0  0.12 0 0  0.14 0 0  0.16 0 0  0.18 0 0  0.2 0 0  0.22 0 0  0.24 0 0  0.26 0 0  0.28 0 0  0.3 0 0  0.32 0 0  0.34 0 0  0.36 0 0  0.38 0 0  0.4 0 0  0.42 0 0  0.44 0 0  0.46 0 0  0.48 0 0  0.5 0 0  0.52 0 0  0.54 0 0  0.5600000000000001 0 0  0.58 0 0  0.6 0 0  0.62 0 0  0.64 0 0  0.66 0 0  0.68 0 0  0.7 0 0  0.72 0 0  0.74 0 0  0.76 0 0  0.78 0 0  0.8 0 0  0.82 0 0  0.84 0 0  0.86 0 0  0.88 0 0  0.9 0 0  0.92 0 0  0.9399999999999999 0 0  0.96 0 0  0.98 0 0  1 0 0  1.02 0 0  1.04 0 0  1.06 0 0  1.08 0 0  1.1 0 0  1.12 0 0  1.14 0 0  1.16 0 0  1.18 0 0  1.2 0 0  1.22 0 0  1.24 0 0  1.26 0 0  1.28 0 0  1.3 0 0  1.32 0 0  1.34 0 0  1.36 0 0  1.38 0 0  1.4 0 0  1.42 0 0  1.44 0 0  1.46 0 0  1.48 0 0  1.5 0 0  1.52 0 0  1.54 0 0  1.56 0 0  1.58 0 0  1.6 0 0  1.62 0 0  1.64 0 0  1.66 0 0  1.68 0 0  1.7 0 0  1.72 0 0  1.74 0 0  1.76 0 0  1.78 0 0  1.8 0 0  1.82 0 0  1.84 0 0  1.86 0 0  1.88 0 0  1.9 0 0  1.92 0 0  1.94 0 0  1.96 0 0  1.98 0 0  2 0 0  2.02 0 0  2.04 0 0  2.06 0 0  2.08 0 0  2.1 0 0  2.12 0 0  2.14 0 0  2.16 0 0  2.18 0 0  2.2 0 0  2.22 0 0  2.24 0 0  2.26 0 0  2.28 0 0  2.3 0 0  2.32 0 0  2.34 0 0  2.36 0 0  2.38 0 0  2.4 0 0  2.42 0 0  2.44 0 0  2.46 0 0  2.48 0 0  2.5 0 0  2.52 0 0  2.54 0 0  2.56 0 0  2.58 0 0  2.6 0 0  2.62 0 0  2.64 0 0  2.66 0 0  2.68 0 0  2.7 0 0  2.72 0 0  2.74 0 0  2.76 0 0  2.78 0 0  2.8 0 0  2.82 0 0  2.84 0 0  2.86 0 0  2.88 0 0  2.9 0 0  2.92 0 0  2.94 0 0  2.96 0 0  2.98 0 0  3 0 0  3.02 0 0  3.04 0 0  3.06 0 0  3.08 0 0  3.1 0 0  3.12 0 0  3.14 0 0  3.16 0 0  3.18 0 0  3.2 0 0  3.22 0 0  3.24 0 0  3.26 0 0  3.28 0 0  3.3 0 0  3.32 0 0  3.34 0 0  3.36 0 0  3.38 0 0  3.4 0 0  3.42 0 0  3.44 0 0  3.46 0 0  3.48 0 0  3.5 0 0  3.52 0 0  3.54 0 0  3.56 0 0  3.58 0 0  3.6 0 0  3.62 0 0  3.64 0 0  3.66 0 0  3.68 0 0  3.7 0 0  3.72 0 0  3.74 0 0  3.76 0 0  3.78 0 0  3.8 0 0  3.82 0 0  3.84 0 0  3.86 0 0  3.88 0 0  3.9 0 0  3.92 0 0  3.94 0 0  3.96 0 0  3.98 0 0  4 0 0  0 0.02 0  0.02 0.02 0  0.04 0.02 0  0.06 0.02 0  0.08 0.02 0  0.1 0.02 0  0.12 0.02 0  0.14 0.02 0  0.16 0.02 0  0.18 0.02 0  0.2 0.02 0  0.22 0.02 0  0.24 0.02 0  0.26 0.02 0  0.28 0.02 0  0.3 0.02 0  0.32 0.02 0  0.34 0.02 0  0.36 0.02 0  0.38 0.02 0  0.4 0.02 0  0.42 0.02 0  0.44 0.02 0  0.46 0.02 0  0.48 0.02 0  0.5 0.02 0  0.52 0.02 0  0.54 0.02 0  0.5600000000000001 0.02 0  0.58 0.02 0  0.6 0.02 0  0.62 0.02 0  0.64 0.02 0  0.66 0.02 0  0.68 0.02 0  0.7 0.02 0  0.72 0.02 0  0.74 0.02 0  0.76 0.02 0  0.78 0.02 0  0.8 0.02 0  0.82 0.02 0  0.84 0.02 0  0.86 0.02 0  0.88 0.02 0  0.9 0.02 0  0.92 0.02 0  0.9399999999999999 0.02 0  0.96 0.02 0  0.98 0.02 0  1 0.02 0  1.02 0.02 0  1.04 0.02 0  1.06 0.02 0  1.08 0.02 0  1.1 0.02 0  1.12 0.02 0  1.14 0.02 0  1.16 0.02 0  1.18 0.02 0  1.2 0.02 0  1.22 0.02 0  1.24 0.02 0  1.26 0.02 0  1.28 0.02 0  1.3 0.02 0  1.32 0.02 0  1.34 0.02 0  1.36 0.02 0  1.38 0.02 0  1.4 0.02 0  1.42 0.02 0  1.44 0.02 0  1.46 0.02 0  1.48 0.02 0  1.5 0.02 0  1.52 0.02 0  1.54 0.02 0  1.56 0.02 0  1.58 0.02 0  1.6 0.02 0  1.62 0.02 0  1.64 0.02 0  1.66 0.02 0  1.68 0.02 0  1.7 0.02 0  1.72 0.02 0  1.74 0.02 0  1.76 0.02 0  1.78 0.02 0  1.8 0.02 0  1.82 0.02 0  1.84 0.02 0  1.86 0.02 0  1.88 0.02 0  1.9 0.02 0  1.92 0.02 0  1.94 0.02 0  1.96 0.02 0  1.98 0.02 0  2 0.02 0  2.02 0.02 0  2.04 0.02 0  2.06 0.02 0  2.08 0.02 0  2.1 0.02 0  2.12 0.02 0  2.14 0.02 0  2.16 0.02 0  2.18 0.02 0  2.2 0.02 0  2.22 0.02 0  2.24 0.02 0  2.26 0.02 0  2.28 0.02 0  2.3 0.02 0  2.32 0.02 0  2.34 0.02 0  2.36 0.02 0  2.38 0.02 0  2.4 0.02 0  2.42 0.02 0  2.44 0.02 0  2.46 0.02 0  2.48 0.02 0  2.5 0.02 0  2.52 0.02 0  2.54 0.02 0  2.56 0.02 0  2.58 0.02 0  2.6 0.02 0  2.62 0.02 0  2.64 0.02 0  2.66 0.02 0  2.68 0.02 0  2.7 0.02 0  2.72 0.02 0  2.74 0.02 0  2.76 0.02 0  2.78 0.02 0  2.8 0.02 0  2.82 0.02 0  2.84 0.02 0  2.86 0.02 0  2.88 0.02 0  2.9 0.02 0  2.92 0.02 0  2.94 0.02 0  2.96 0.02 0  2.98 0.02 0  3 0.02 0  3.02 0.02 0  3.04 0.02 0  3.06 0.02 0  3.08 0.02 0  3.1 0.02 0  3.12 0.02 0  3.14 0.02 0  3.16 0.02 0  3.18 0.02 0  3.2 0.02 0  3.22 0.02 0  3.24 0.02 0  3.26 0.02 0  3.28 0.02 0  3.3 0.02 0  3.32 0.02 0  3.34 0.02 0  3.36 0.02 0  3.38 0.02 0  3.4 0.02 0  3.42 0.02 0  3.44 0.02 0  3.46 0.02 0  3.48 0.02 0  3.5 0.02 0  3.52 0.02 0  3.54 0.02 0  3.56 0.02 0  3.58 0.02 0  3.6 0.02 0  3.62 0.02 0  3.64 0.02 0  3.66 0.02 0  3.68 0.02 0  3.7 0.02 0  3.72 0.02 0  3.74 0.02 0  3.76 0.02 0  3.78 0.02 0  3.8 0.02 0  3.82 0.02 0  3.84 0.02 0  3.86 0.02 0  3.88 0.02 0  3.9 0.02 0  3.92 0.02 0  3.94 0.02 0  3.96 0.02 0  3.98 0.02 0  4 0.02 0  0 0.04 0  0.02 0.04 0  0.04 0.04 0  0.06 0.04 0  0.08 0.04 0  0.1 0.04 0  0.12 0.04 0  0.14 0.04 0  0.16 0.04 0  0.18 0.04 0  0.2 0.04 0  0.22 0.04 0  0.24 0.04 0  0.26 0.04 0  0.28 0.04 0  0.3 0.04 0  0.32 0.04 0  0.34 0.04 0  0.36 0.04 0  0.38 0.04 0  0.4 0.04 0  0.42 0.04 0  0.44 0.04 0  0.46 0.04 0  0.48 0.04 0  0.5 0.04 0  0.52 0.04 0  0.54 0.04 0  0.5600000000000001 0.04 0  0.58 0.04 0  0.6 0.04 0  0.62 0.04 0  0.64 0.04 0  0.66 0.04 0  0.68 0.04 0  0.7 0.04 0  0.72 0.04 0  0.74 0.04 0  0.76 0.04 0  0.78 0.04 0  0.8 0.04 0  0.82 0.04 0  0.84 0.04 0  0.86 0.04 0  0.88 0.04 0  0.9 0.04 0  0.92 0.04 0  0.9399999999999999 0.04 0  0.96 0.04 0  0.98 0.04 0  1 0.04 0  1.02 0.04 0  1.04 0.04 0  1.06 0.04 0  1.08 0.04 0  1.1 0.04 0  1.12 0.04 0  1.14 0.04 0  1.16 0.04 0  1.18 0.04 0  1.2 0.04 0  1.22 0.04 0  1.24 0.04 0  1.26 0.04 0  1.28 0.04 0  1.3 0.04 0  1.32 0.04 0  1.34 0.04 0  1.36 0.04 0  1.38 0.04 0  1.4 0.04 0  1.42 0.04 0  1.44 0.04 0  1.46 0.04 0  1.48 0.04 0  1.5 0.04 0  1.52 0.04 0  1.54 0.04 0  1.56 0.04 0  1.58 0.04 0  1.6 0.04 0  1.62 0.04 0  1.64 0.04 0  1.66 0.04 0  1.68 0.04 0  1.7 0.04 0  1.72 0.04 0  1.74 0.04 0  1.76 0.04 0  1.78 0.04 0  1.8 0.04 0  1.82 0.04 0  1.84 0.04 0  1.86 0.04 0  1.88 0.04 0  1.9 0.04 0  1.92 0.04 0  1.94 0.04 0  1.96 0.04 0  1.98 0.04 0  2 0.04 0  2.02 0.04 0  2.04 0.04 0  2.06 0.04 0  2.08 0.04 0  2.1 0.04 0  2.12 0.04 0  2.14 0.04 0  2.16 0.04 0  2.18 0.04 0  2.2 0.04 0  2.22 0.04 0  2.24 0.04 0  2.26 0.04 0  2.28 0.04 0  2.3 0.04 0  2.32 0.04 0  2.34 0.04 0  2.36 0.04 0  2.38 0.04 0  2.4 0.04 0  2.42 0.04 0  2.44 0.04 0  2.46 0.04 0  2.48 0.04 0  2.5 0.04 0  2.52 0.04 0  2.54 0.04 0  2.56 0.04 0  2.58 0.04 0  2.6 0.04 0  2.62 0.04 0  2.64 0.04 0  2.66 0.04 0  2.68 0.04 0  2.7 0.04 0  2.72 0.04 0  2.74 0.04 0  2.76 0.04 0  2.78 0.04 0  2.8 0.04 0  2.82 0.04 0  2.84 0.04 0  2.86 0.04 0  2.88 0.04 0  2.9 0.04 0  2.92 0.04 0  2.94 0.04 0  2.96 0.04 0  2.98 0.04 0  3 0.04 0  3.02 0.04 0  3.04 0.04 0  3.06 0.04 0  3.08 0.04 0  3.1 0.04 0  3.12 0.04 0  3.14 0.04 0  3.16 0.04 0  3.18 0.04 0  3.2 0.04 0  3.22 0.04 0  3.24 0.04 0  3.26 0.04 0  3.28 0.04 0  3.3 0.04 0  3.32 0.04 0  3.34 0.04 0  3.36 0.04 0  3.38 0.04 0  3.4 0.04 0  3.42 0.04 0  3.44 0.04 0  3.46 0.04 0  3.48 0.04 0  3.5 0.04 0  3.52 0.04 0  3.54 0.04 0  3.56 0.04 0  3.58 0.04 0  3.6 0.04 0  3.62 0.04 0  3.64 0.04 0  3.66 0.04 0  3.68 0.04 0  3.7 0.04 0  3.72 0.04 0  3.74 0.04 0  3.76 0.04 0  3.78 0.04 0  3.8 0.04 0  3.82 0.04 0  3.84 0.04 0  3.86 0.04 0  3.88 0.04 0  3.9 0.04 0  3.92 0.04 0  3.94 0.04 0  3.96 0.04 0  3.98 0.04 0  4 0.04 0  0 0.06 0  0.02 0.06 0  0.04 0.06 0  0.06 0.06 0  0.08 0.06 0  0.1 0.06 0  0.12 0.06 0  0.14 0.06 0  0.16 0.06 0  0.18 0.06 0  0.2 0.06 0  0.22 0.06 0  0.24 0.06 0  0.26 0.06 0  0.28 0.06 0  0.3 0.06 0  0.32 0.06 0  0.34 0.06 0  0.36 0.06 0  0.38 0.06 0  0.4 0.06 0  0.42 0.06 0  0.44 0.06 0  0.46 0.06 0  0.48 0.06 0  0.5 0.06 0  0.52 0.06 0  0.54 0.06 0  0.5600000000000001 0.06 0  0.58 0.06 0  0.6 0.06 0  0.62 0.06 0  0.64 0.06 0  0.66 0.06 0  0.68 0.06 0  0.7 0.06 0  0.72 0.06 0  0.74 0.06 0  0.76 0.06 0  0.78 0.06 0  0.8 0.06 0  0.82 0.06 0  0.84 0.06 0  0.86 0.06 0  0.88 0.06 0  0.9 0.06 0  0.92 0.06 0  0.9399999999999999 0.06 0  0.96 0.06 0  0.98 0.06 0  1 0.06 0  1.02 0.06 0  1.04 0.06 0  1.06 0.06 0  1.08 0.06 0  1.1 0.06 0  1.12 0.06 0  1.14 0.06 0  1.16 0.06 0  1.18 0.06 0  1.2 0.06 0  1.22 0.06 0  1.24 0.06 0  1.26 0.06 0  1.28 0.06 0  1.3 0.06 0  1.32 0.06 0  1.34 0.06 0  1.36 0.06 0  1.38 0.06 0  1.4 0.06 0  1.42 0.06 0  1.44 0.06 0  1.46 0.06 0  1.48 0.06 0  1.5 0.06 0  1.52 0.06 0  1.54 0.06 0  1.56 0.06 0  1.58 0.06 0  1.6 0.06 0  1.62 0.06 0  1.64 0.06 0  1.66 0.06 0  1.68 0.06 0  1.7 0.06 0  1.72 0.06 0  1.74 0.06 0  1.76 0.06 0  1.78 0.06 0  1.8 0.06 0  1.82 0.06 0  1.84 0.06 0  1.86 0.06 0  1.88 0.06 0  1.9 0.06 0  1.92 0.06 0  1.94 0.06 0  1.96 0.06 0  1.98 0.06 0  2 0.06 0  2.02 0.06 0  2.04 0.06 0  2.06 0.06 0  2.08 0.06 0  2.1 0.06 0  2.12 0.06 0  2.14 0.06 0  2.16 0.06 0  2.18 0.06 0  2.2 0.06 0  2.22 0.06 0  2.24 0.06 0  2.26 0.06 0  2.28 0.06 0  2.3 0.06 0  2.32 0.06 0  2.34 0.06 0  2.36 0.06 0  2.38 0.06 0  2.4 0.06 0  2.42 0.06 0  2.44 0.06 0  2.46 0.06 0  2.48 0.06 0  2.5 0.06 0  2.52 0.06 0  2.54 0.06 0  2.56 0.06 0  2.58 0.06 0  2.6 0.06 0  2.62 0.06 0  2.64 0.06 0  2.66 0.06 0  2.68 0.06 0  2.7 0.06 0  2.72 0.06 0  2.74 0.06 0  2.76 0.06 0  2.78 0.06 0  2.8 0.06 0  2.82 0.06 0  2.84 0.06 0  2.86 0.06 0  2.88 0.06 0  2.9 0.06 0  2.92 0.06 0  2.94 0.06 0  2.96 0.06 0  2.98 0.06 0  3 0.06 0  3.02 0.06 0  3.04 0.06 0  3.06 0.06 0  3.08 0.06 0  3.1 0.06 0  3.12 0.06 0  3.14 0.06 0  3.16 0.06 0  3.18 0.06 0  3.2 0.06 0  3.22 0.06 0  3.24 0.06 0  3.26 0.06 0  3.28 0.06 0  3.3 0.06 0  3.32 0.06 0  3.34 0.06 0  3.36 0.06 0  3.38 0.06 0  3.4 0.06 0  3.42 0.06 0  3.44 0.06 0  3.46 0.06 0  3.48 0.06 0  3.5 0.06 0  3.52 0.06 0  3.54 0.06 0  3.56 0.06 0  3.58 0.06 0  3.6 0.06 0  3.62 0.06 0  3.64 0.06 0  3.66 0.06 0  3.68 0.06 0  3.7 0.06 0  3.72 0.06 0  3.74 0.06 0  3.76 0.06 0  3.78 0.06 0  3.8 0.06 0  3.82 0.06 0  3.84 0.06 0  3.86 0.06 0  3.88 0.06 0  3.9 0.06 0  3.92 0.06 0  3.94 0.06 0  3.96 0.06 0  3.98 0.06 0  4 0.06 0  0 0.08 0  0.02 0.08 0
[...]
<PointData  Scalars="f_86"> 
<DataArray  type="Float64"  Name="f_86"  format="ascii">1.6023339324543912e-07  4.1698056858616647e-03  6.8033210375048284e-03  9.0973205528865949e-03  1.1258826361153888e-02  1.3361723606220734e-02  1.5442557165326538e-02  1.7521661335448035e-02  1.9611099849764026e-02  2.1718403349421520e-02  2.3848495893303071e-02  2.6004751109223147e-02  2.8189598352786151e-02  3.0404882256821412e-02  3.2652080952294681e-02  3.4932440498866013e-02  3.7247058341104859e-02  3.9596935150899619e-02  4.1983006792786305e-02  4.4406163684557888e-02  4.6867262138744217e-02  4.9367130616101332e-02  5.1906572783657998e-02  5.4486368607263552e-02  5.7107274280135928e-02  5.9770021508839748e-02  6.2475316493493922e-02  6.5223838816571650e-02  6.8016240373197798e-02  7.0853144421649791e-02  7.3735144796835642e-02  7.6662805305903678e-02  7.9636659309854849e-02  8.2657209485386199e-02  8.5724927755383901e-02  8.8840255373244831e-02  9.2003603144695592e-02  9.5215351770402759e-02  9.8475852293024649e-02  1.0178542663316566e-01  1.0514436819977076e-01  1.0855294256170404e-01  1.1201138816851400e-01  1.1551991710963319e-01  1.1907871590246120e-01  1.2268794630091166e-01  1.2634774611705410e-01  1.3005823004944769e-01  1.3381949051264092e-01  1.3763159846310311e-01  1.4149460421756574e-01  1.4540853826038549e-01  1.4937341203710325e-01  1.5338921873187641e-01  1.5745593402689387e-01  1.6157351684227614e-01  1.6574191005529551e-01  1.6996104119804431e-01  1.7423082313293808e-01  1.7855115470565486e-01  1.8292192137530547e-01  1.8734299582178793e-01  1.9181423853041618e-01  1.9633549835403449e-01  2.0090661305291632e-01  2.0552740981283626e-01  2.1019770574176186e-01  2.1491730834567574e-01  2.1968601598406076e-01  2.2450361830563895e-01  2.2936989666496022e-01  2.3428462452045537e-01  2.3924756781459097e-01  2.4425848533675518e-01  2.4931712906950856e-01  2.5442324451883519e-01  2.5957657102901888e-01  2.6477684208275842e-01  2.7002378558713142e-01  2.7531712414599441e-01  2.8065657531940175e-01  2.8604185187060072e-01  2.9147266200115268e-01  2.9694870957470476e-01  3.0246969432992643e-01  3.0803531208310064e-01  3.1364525492084799e-01  3.1929921138343770e-01  3.2499686663912503e-01  3.3073790264994046e-01  3.3652199832932739e-01  3.4234882969202463e-01  3.4821806999655408e-01  3.5412938988067560e-01  3.6008245749014478e-01  3.6607693860109436e-01  3.7211249673635061e-01  3.7818879327597771e-01  3.8430548756232774e-01  3.9046223699986732e-01  3.9665869715003177e-01  4.0289452182134589e-01  4.0916936315504804e-01  4.1548287170642817e-01  4.2183469652209266e-01  4.2822448521334960e-01  4.3465188402590099e-01  4.4111653790602312e-01  4.4761809056339757e-01  4.5415618453075385e-01  4.6073046122047845e-01  4.6734056097832061e-01  4.7398612313434713e-01  4.8066678605125374e-01  4.8738218717016585e-01  4.9413196305403589e-01  5.0091574942874040e-01  5.0773318122198152e-01  5.1458389260007842e-01  5.2146751700273664e-01  5.2838368717587814e-01  5.3533203520259531e-01  5.4231219253231233e-01  5.4932379000818998e-01  5.5636645789286132e-01  5.6343982589251029e-01  5.7054352317936941e-01  5.7767717841264798e-01  5.8484041975793755e-01  5.9203287490511070e-01  5.9925417108473755e-01  6.0650393508302713e-01  6.1378179325531013e-01  6.2108737153805260e-01  6.2842029545941547e-01  6.3578019014833376e-01  6.4316668034212865e-01  6.5057939039260870e-01  6.5801794427069071e-01  6.6548196556947636e-01  6.7297107750582741e-01  6.8048490292039931e-01  6.8802306427616211e-01  6.9558518365542588e-01  7.0317088275541795e-01  7.1077978288248511e-01  7.1841150494503669e-01  7.2606566944537854e-01  7.3374189647068255e-01  7.4143980568337975e-01  7.4915901631138038e-01  7.5689914713865158e-01  7.6465981649683812e-01  7.7244064225877018e-01  7.8024124183496590e-01  7.8806123217448854e-01  7.9590022977185348e-01  8.0375785068208749e-01  8.1163371054651590e-01  8.1952742463244488e-01  8.2743860789056789e-01  8.3536687503477325e-01  8.4331184065000508e-01  8.5127311933496896e-01  8.5925032588789618e-01  8.6724307554519819e-01  8.7525098428480341e-01  8.8327366920831407e-01  8.9131074901887586e-01  8.9936184461497870e-01  9.0742657982437569e-01  9.1550458230708209e-01  9.2359548466218133e-01  9.3169892578016245e-01  9.3981455249107748e-01  9.4794202156933272e-01  9.5608100216901437e-01  9.6423117878002729e-01  9.7239225481612390e-01  9.8056395697246856e-01  9.8874604052497039e-01  9.9693829578906923e-01  1.0051405560164242e+00  1.0133527070905046e+00  1.0215746994962391e+00  1.0298065631998905e+00  1.0380484263073044e+00  1.0463005387111315e+00  1.0545633024566596e+00  1.0628373113668632e+00  1.0711234037789195e+00  1.0794227344523473e+00  1.0877368756043078e+00  1.0960679642956348e+00  1.1044189279032415e+00  1.1127938509033604e+00  1.1211986220471091e+00  1.1296422143857585e+00  1.1381397600812229e+00  1.1467233918116491e+00  1.1555087824277348e+00  2.0006170786105098e-07  2.6343037741119830e-03  5.2800740737013931e-03  7.6774091220115949e-03  9.9050275723679172e-03  1.2040924137457689e-02  1.4130237140476053e-02  1.6199674036371639e-02  1.8265919233282982e-02  2.0339905302735804e-02  2.2429112735251805e-02  2.4538875365005871e-02  2.6673151922979435e-02  2.8834997053278657e-02  3.1026856498730219e-02  3.3250756070819107e-02  3.5508424737519514e-02  3.7801375947859865e-02  4.0130962006503249e-02  4.2498410803805446e-02  4.4904850858965881e-02  4.7351328551771828e-02  4.9838820097673257e-02  5.2368239968736935e-02  5.4940446905090250e-02  5.7556248291585677e-02  6.0216403426626514e-02  6.2921626042624718e-02  6.5672586323580279e-02  6.8469912587257542e-02  7.1314192745828564e-02  7.4205975621923728e-02  7.7145772171567095e-02  8.0134056647925403e-02  8.3171267727744719e-02  8.6257809614093878e-02  8.9394053123440190e-02  9.2580336761320423e-02  9.5816967788390828e-02  9.9104223277042588e-02  1.0244235115778073e-01  1.0583157125399147e-01  1.0927207630343339e-01  1.1276403296468178e-01  1.1630758280678002e-01  1.1990284328044265e-01  1.2354990866930632e-01  1.2724885101988770e-01  1.3099972104909555e-01  1.3480254902832098e-01  1.3865734564331580e-01  1.4256410282923498e-01  1.4652279458038209e-01  1.5053337773434794e-01  1.5459579273036311e-01  1.5870996434181880e-01  1.6287580238301319e-01  1.6709320239028744e-01  1.7136204627780199e-01  1.7568220296828366e-01  1.8005352899913926e-01  1.8447586910439542e-01  1.8894905677297180e-01  1.9347291478383541e-01  1.9804725571862561e-01  2.0267188245235765e-01  2.0734658862284508e-01  2.1207115907949028e-01  2.1684537031210718e-01  2.2166899086044628e-01  2.2654178170509831e-01  2.3146349664044358e-01  2.3643388263032214e-01  2.4145268014708512e-01  2.4651962349467788e-01  2.5163444111640526e-01  2.5679685588800016e-01  2.6200658539661731e-01  2.6726334220635362e-01  2.7256683411087412e-01  2.7791676437371726e-01  2.8331283195682411e-01  2.8875473173782762e-01  2.9424215471661169e-01  2.9977478821163844e-01  3.0535231604651847e-01  3.1097441872728382e-01  3.1664077361080134e-01  3.2235105506475475e-01  3.2810493461959161e-01  3.3390208111283110e-01  3.3974216082609909e-01  3.4562483761524432e-01  3.5154977303387624e-01  3.5751662645064847e-01  3.6352505516058936e-01  3.6957471449078355e-01  3.7566525790067357e-01  3.8179633707725441e-01  3.8796760202541419e-01  3.9417870115365566e-01  4.0042928135543204e-01  4.0671898808631807e-01  4.1304746543721022e-01  4.1941435620376766e-01  4.2581930195226581e-01  4.3226194308204513e-01  4.3874191888472180e-01  4.4525886760031769e-01  4.5181242647045128e-01  4.5840223178874423e-01  4.6502791894856410e-01  4.7168912248823414e-01  4.7838547613382670e-01  4.8511661283965518e-01  4.9188216482655556e-01  4.9868176361807487e-01  5.0551504007463677e-01  5.1238162442578727e-01  5.1928114630057709e-01  5.2621323475617698e-01  5.3317751830477145e-01  5.4017362493880228e-01  5.4720118215460778e-01  5.5425981697451487e-01  5.6134915596741264e-01  5.6846882526785480e-01  5.7561845059371308e-01  5.8279765726240396e-01  5.9000607020571127e-01  5.9724331398320829e-01  6.0450901279428526e-01  6.1180279048878694e-01  6.1912427057623776e-01  6.2647307623365633e-01  6.3384883031192985e-01  6.4125115534072996e-01  6.4867967353193856e-01  6.5613400678156131e-01  6.6361377667008870e-01  6.7111860446128435e-01  6.7864811109937151e-01  6.8620191720460311e-01  6.9377964306720907e-01  7.0138090863974123e-01  7.0900533352784756e-01  7.1665253697955700e-01  7.2432213787319200e-01  7.3201375470408803e-01  7.3972700557037419e-01  7.4746150815816503e-01  7.5521687972662332e-01  7.6299273709352500e-01  7.7078869662210148e-01  7.7860437421019679e-01  7.8643938528301871e-01  7.9429334479111169e-01  8.0216586721556515e-01  8.1005656658296676e-01  8.1796505649316931e-01  8.2589095016365688e-01  8.3383386049509811e-01  8.4179340016369453e-01  8.4976918174708660e-01  8.5776081789200431e-01  8.6576792153352389e-01  8.7379010617778397e-01  8.8182698626239764e-01  8.8987817761166466e-01  8.9794329800704287e-01  9.0602196789748357e-01  9.1411381127910230e-01  9.2221845677964187e-01  9.3033553899041566e-01  9.3846470009727545e-01  9.4660559187309545e-01  9.5475787810787616e-01  9.6292123756964576e-01  9.7109536761108062e-01  9.7927998856462795e-01  9.8747484910528027e-01  9.9567973280808597e-01  1.0038944661918343e+00  1.0121189286280736e+00  1.0203530646165091e+00  1.0285968991004655e+00  1.0368505567462631e+00  1.0451142864816574e+00  1.0533884931549173e+00  1.0616737790675101e+00  1.0699709995864766e+00  1.0782813395106503e+00  1.0866064212623217e+00  1.0949484642692990e+00  1.1033105316478384e+00  1.1116969370626513e+00  1.1201139745958981e+00  1.1285713883204245e+00  1.1370857870514084e+00  1.1456884608326685e+00  1.1544226379341318e+00  1.3049944726733373e-07  2.0218956375828759e-03  4.2782028405320147e-03  6.5292537820880433e-03  8.7059341303932381e-03  1.0816443504235485e-02  1.2883127694856819e-02  1.4925762245630326e-02  1.6959378611450977e-02  1.8995087739169025e-02  2.1041158195293674e-02  2.3103861959312577e-02  2.5188071128948945e-02  2.7297666525103719e-02  2.9435816059161419e-02  3.1605165246093428e-02  3.3807968744916116e-02  3.6046182172141075e-02  3.8321526963003824e-02  4.0635536792038095e-02  4.2989591263580804e-02  4.5384940734665896e-02  4.7822724904469059e-02  5.0303986981282488e-02  5.2829684681633869e-02  5.5400698937081293e-02  5.8017840923975446e-02  6.0681857851599796e-02  6.3393437818984655e-02  6.6153213963168325e-02  6.8961768060127146e-02  7.1819633696081436e-02  7.4727299095963137e-02  7.7685209673734337e-02  8.0693770353361324e-02  8.3753347697742467e-02  8.6864271874501950e-02  9.0026838481365695e-02  9.3241310249239345e-02  9.6507918637627213e-02  9.9826865334382675e-02  1.0319832366971915e-01  1.0662243995279860e-01  1.1009933473792163e-01  1.1362910402630386e-01  1.1721182040857071e-01  1.2084753415240330e-01  1.2453627423917737e-01  1.2827804935295889e-01  1.3207284882479334e-01  1.3592064353489672e-01  1.3982138677504807e-01  1.4377501507324744e-01  1.4778144898248832e-01  1.5184059383532147e-01  1.5595234046573681e-01  1.6011656589976780e-01  1.6433313401611535e-01  1.6860189617800114e-01  1.7292269183738809e-01  1.7729534911263947e-01  1.8171968534063621e-01  1.8619550760432815e-01  1.9072261323665132e-01  1.9530079030171260e-01  1.9992981805411170e-01  2.0460946737724156e-01  2.0933950120138275e-01  2.1411967490238609e-01  2.1894973668171347e-01  2.2382942792858679e-01  2.2875848356497069e-01  2.3373663237410050e-01  2.3876359731323962e-01  2.4383909581133564e-01  2.4896284005222430e-01  2.5413453724400303e-01  2.5935388987518798e-01  2.6462059595824033e-01  2.6993434926102716e-01  2.7529483952676848e-01  2.8070175268299769e-01  2.8615477104004311e-01  2.9165357347952442e-01  2.9719783563332963e-01  3.0278723005352914e-01  3.0842142637366138e-01  3.1410009146180001e-01  3.1982288956580673e-01  3.2558948245115316e-01  3.3139952953166668e-01  3.3725268799355801e-01  3.4314861291305909e-01  3.4908695736798806e-01  3.5506737254354598e-01  3.6108950783263327e-01  3.6715301093095604e-01  3.7325752792718919e-01  3.7940270338844573e-01  3.8558818044127757e-01  3.9181360084844852e-01  3.9807860508167758e-01  4.0438283239056400e-01  4.1072592086788434e-01  4.1710750751143782e-01  4.2352722828262057e-01  4.2998471816188671e-01  4.3647961120125101e-01  4.4301154057397829e-01  4.4958013862160101e-01  4.5618503689839296e-01  4.6282586621341743e-01  4.6950225667027290e-01  4.7621383770463693e-01  4.8296023811971844e-01  4.8974108611970091e-01  4.9655600934127697e-01  5.0340463488335485e-01  5.1028658933500071e-01  5.1720149880170829e-01  5.2414898893003503e-01  5.3112868493068988e-01  5.3814021160009617e-01  5.4518319334050636e-01  5.5225725417867855e-01  5.5936201778317318e-01  5.6649710748028537e-01  5.7366214626863543e-01  5.8085675683243809e-01  5.8808056155345279e-01  5.9533318252162526e-01  6.0261424154440568e-01  6.0992336015474191e-01  6.1726015961772529e-01  6.2462426093586709e-01  6.3201528485297642e-01  6.3943285185660004e-01  6.4687658217899191e-01  6.5434609579656522e-01  6.6184101242777593e-01  6.6936095152940578e-01  6.7690553229119577e-01  6.8447437362878449e-01  6.9206709417494960e-01  6.9968331226911928e-01  7.0732264594518457e-01  7.1498471291766230e-01  7.2266913056627358e-01  7.3037551591912386e-01  7.3810348563467643e-01  7.4585265598283979e-01  7.5362264282560631e-01  7.6141306159780453e-01  7.6922352728873966e-01  7.7705365442568430e-01  7.8490305706048391e-01  7.9277134876085231e-01  8.0065814260835655e-01  8.0856305120554706e-01  8.1648568669531751e-01  8.2442566079623691e-01  8.3238258485849226e-01  8.4035606994604217e-01  8.4834572695184574e-01  8.5635116675441514e-01  8.6437200042573192e-01  8.7240783950256573e-01  8.8045829633573736e-01  8.8852298453478751e-01  8.9660151952905531e-01  9.0469351927040620e-01  9.1279860510796684e-01  9.2091640287144350e-01  9.2904654420716737e-01  9.3718866822028335e-01  9.4534242348800801e-01  9.5350747052319729e-01  9.6168348478549615e-01  9.6987016036034057e-01  9.7806721445567579e-01  9.8627439290485319e-01  9.9449147691538986e-01  1.0027182913719850e+00  1.0109547150961837e+00  1.0192006935958702e+00  1.0274562550232518e+00  1.0357215303288050e+00  1.0439967789971314e+00  1.0522824223565888e+00  1.0605790874016487e+00  1.0688876655928798e+00  1.0772093936400275e+00  1.0855459676526791e+00  1.0938997098537127e+00  1.1022738213690153e+00  1.1106727808708132e+00  1.1191029920878190e+00  1.1275738074601842e+00  1.1360986666377113e+00  1.1446928257765854e+00  1.1533506518886845e+00  1.2669866855320619e-07  1.7101879698945513e-03  3.6389296987689784e-03  5.6655656179820909e-03  7.7072595510717448e-03  9.7326112640616254e-03  1.1737665975074094e-02  1.3728490500800754e-02  1.5713521996111909e-02  1.7700875879788847e-02  1.9697606719448205e-02  2.1709649143987705e-02  2.3741961173561869e-02  2.5798702338494253e-02  2.7883393601869873e-02  2.9999047021731947e-02  3.2148266667766504e-02  3.4333325934644179e-02  3.6556226583317093e-02  3.8818744009257493e-02  4.1122462246531551e-02  4.3468801345724659e-02  4.5859039073339963e-02  4.8294328358345358e-02  5.0775711526387241e-02  5.3304132081599301e-02  5.5880444592869505e-02  5.8505423094907624e-02  6.1179768308795381e-02  6.3904113910411522e-02  6.6679032019892406e-02  6.9505038045128156e-02  7.2382594982921350e-02  7.5312117259778530e-02  7.8293974178183179e-02  8.1328493022049128e-02  8.4415961865769218e-02  8.7556632124058523e-02  9.0750720874106308e-02  9.3998412976958587e-02  9.7299863021320196e-02  1.0065519710984980e-01  1.0406451450539703e-01  1.0752788915240251e-01  1.1104537108675586e-01  1.1461698774574088e-01  1.1824274518824880e-01  1.2192262923417430e-01  1.2565660653080027e-01  1.2944462555301381e-01  1.3328661754334337e-01  1.3718249739707508e-01  1.4113216449705748e-01  1.4513550350224777e-01  1.4919238509356580e-01  1.5330266668020154e-01  1.5746619306916076e-01  1.6168279710051886e-01  1.6595230025058591e-01  1.7027451320495218e-01  1.7464923640318986e-01  1.7907626055681108e-01  1.8355536714194068e-01  1.8808632886803683e-01  1.9266891012388146e-01  1.9730286740197481e-01  2.0198794970238548e-01  2.0672389891703605e-01  2.1151045019534831e-01  2.1634733229211284e-01  2.2123426789840689e-01  2.2617097395633359e-01  2.3115716195832578e-01  2.3619253823171901e-01  2.4127680420926342e-01  2.4640965668622350e-01  2.5159078806467505e-01  2.5681988658559524e-01  2.6209663654930720e-01  2.6742071852482391e-01  2.7279180954861010e-01  2.7820958331325935e-01  2.8367371034656808e-01  2.8918385818146070e-01  2.9473969151720625e-01  3.0034087237234741e-01  3.0598706022974415e-01  3.1167791217411323e-01  3.1741308302243793e-01  3.2319222544759602e-01  3.2901499009553914e-01  3.3488102569635086e-01  3.4078997916948273e-01  3.4674149572346530e-01  3.5273521895036691e-01  3.5877079091526948e-01  3.6484785224101002e-01  3.7096604218842888e-01  3.7712499873235272e-01  3.8332435863352432e-01  3.8956375750669509e-01  3.9584282988506481e-01  4.0216120928125587e-01  4.0851852824500440e-01  4.1491441841772453e-01  4.2134851058411121e-01  4.2782043472092679e-01  4.3432982004311116e-01  4.4087629504735221e-01  4.4745948755323933e-01  4.5407902474211703e-01  4.6073453319375324e-01  4.6742563892092670e-01  4.7415196740202725e-01  4.8091314361176485e-01  4.8770879205007245e-01  4.9453853676928083e-01  5.0140200139963975e-01  5.0829880917325510e-01  5.1522858294649843e-01  5.2219094522095477e-01  5.2918551816294912e-01  5.3621192362170766e-01  5.4326978314617569e-01  5.5035871800055147e-01  5.5747834917853478e-01  5.6462829741633414e-01  5.7180818320443205e-01  5.7901762679812863e-01  5.8625624822685574e-01  5.9352366730226336e-01  6.0081950362506686e-01  6.0814337659063122e-01  6.1549490539327323e-01  6.2287370902924766e-01  6.3027940629838020e-01  6.3771161580430458e-01  6.4516995595324789e-01  6.5265404495132495e-01  6.6016350080027131e-01  6.6769794129157234e-01  6.7525698399892120e-01  6.8284024626897122e-01  6.9044734521033202e-01  6.9807789768080075e-01  7.0573152027280772e-01  7.1340782929713720e-01  7.2110644076496699e-01  7.2882697036838362e-01  7.3656903345955849e-01  7.4433224502889206e-01  7.5211621968253295e-01  7.5992057161983717e-01  7.6774491461150751e-01  7.7558886197938504e-01  7.8345202657912694e-01  7.9133402078737214e-01  7.9923445649536795e-01  8.0715294511155566e-01  8.1508909757620462e-01  8.2304252439190517e-01  8.3101283567459683e-01  8.3899964123084592e-01  8.4700255066834573e-01  8.5502117354807494e-01  8.6305511958834646e-01  8.7110399893310375e-01  8.7916742249935809e-01  8.8724500242170812e-01  8.9533635261555522e-01  9.0344108948501356e-01  9.1155883280684891e-01  9.1968920682824740e-01  9.2783184162407262e-01  9.3598637476900048e-01  9.4415245339184506e-01  9.5232973669439469e-01  9.6051789903585549e-01  9.6871663370796979e-01  9.7692565755667105e-01  9.8514471664626180e-01  9.9337359321498664e-01  1.0016121142416679e+00  1.0098601620390177e+00  1.0181176874215341e+00  1.0263847261809069e+00  1.0346614198650870e+00  1.0429480422375428e+00  1.0512450333516226e+00  1.0595530440054399e+00  1.0678729945880789e+00  1.0762061541886521e+00  1.0845542485336259e+00  1.0929196088084487e+00  1.1013053762078950e+00  1.1097157713286998e+00  1.1181563905969527e+00  1.1266342822541899e+00  1.1351568152541456e+00  1.1437266022582391e+00  1.1523301479081405e+00  1.2664576782224634e-07  1.5054563760835804e-03  3.1954513999224734e-03  5.0100849943163824e-03  6.8890400185952867e-03  8.7938606376464432e-03  1.0706705639003307e-02  1.2622359714202610e-02  1.4541884885317222e-02  1.6468992804268605e-02  1.8408247008923670e-02  2.0364248906473027e-02  2.2341304979595179e-02  2.4343316900284299e-02  2.6373769524790088e-02  2.8435758226389208e-02  3.0532028982542349e-02  3.2665019705638926e-02  3.4836898291554910e-02  3.7049596008929514e-02  3.9304836196963552e-02  4.1604158749626967e-02  4.3948941000113560e-02  4.6340415598551413e-02  4.8779685898962866e-02  5.1267739283023792e