<?xml version="1.0"?>
<VTKFile type="UnstructuredGrid"  version="0.1"  >
<UnstructuredGrid>
<Piece  NumberOfPoints="20251" NumberOfCells="40000">
<Points>
<DataArray  type="Float64"  NumberOfComponents="3"  format="ascii">0 0 0  0.02 0 0  0.04 0 0  0.06 0 0  0.08 0 0  0.1 0 0  0.12 0 0  0.14 0 0  0.16 0 0  0.18 0 0  0.2 0 0  0.22 0 0  0.24 0 0  0.26 0 0  0.28 0 0  0.3 0 0  0.32 0 0  0.34 0 0  0.36 0 0  0.38 0 0  0.4 0 0  0.42 0 0  0.44 0 0  0.46 0 0  0.48 0 0  0.5 0 0  0.52 0 0  0.54 0 0  0.5600000000000001 0 0  0.58 0 0  0.6 0 0  0.62 0 0  0.64 0 0  0.66 0 0  0.68 0 0  0.7 0 0  0.72 0 0  0.74 0 0  0.76 0 0  0.78 0 0  0.8 0 0  0.82 0 0  0.84 0 0  0.86 0 0  0.88 0 0  0.9 0 0  0.92 0 0  0.9399999999999999 0 0  0.96 0 0  0.98 0 0  1 0 0  1.02 0 0  1.04 0 0  1.06 0 0  1.08 0 0  1.1 0 0  1.12 0 0  1.14 0 0  1.16 0 0  1.18 0 0  1.2 0 0  1.22 0 0  1.24 0 0  1.26 0 0  1.28 0 0  1.3 0 0  1.32 0 0  1.34 0 0  1.36 0 0  1.38 0 0  1.4 0 0  1.42 0 0  1.44 0 0  1.46 0 0  1.48 0 0  1.5 0 0  1.52 0 0  1.54 0 0  1.56 0 0  1.58 0 0  1.6 0 0  1.62 0 0  1.64 0 0  1.66 0 0  1.68 0 0  1.7 0 0  1.72 0 0  1.74 0 0  1.76 0 0  1.78 0 0  1.8 0 0  1.82 0 0  1.84 0 0  1.86 0 0  1.88 0 0  1.9 0 0  1.92 0 0  1.94 0 0  1.96 0 0  1.98 0 0  2 0 0  2.02 0 0  2.04 0 0  2.06 0 0  2.08 0 0  2.1 0 0  2.12 0 0  2.14 0 0  2.16 0 0  2.18 0 0  2.2 0 0  2.22 0 0  2.24 0 0  2.26 0 0  2.28 0 0  2.3 0 0  2.32 0 0  2.34 0 0  2.36 0 0  2.38 0 0  2.4 0 0  2.42 0 0  2.44 0 0  2.46 0 0  2.48 0 0  2.5 0 0  2.52 0 0  2.54 0 0  2.56 0 0  2.58 0 0  2.6 0 0  2.62 0 0  2.64 0 0  2.66 0 0  2.68 0 0  2.7 0 0  2.72 0 0  2.74 0 0  2.76 0 0  2.78 0 0  2.8 0 0  2.82 0 0  2.84 0 0  2.86 0 0  2.88 0 0  2.9 0 0  2.92 0 0  2.94 0 0  2.96 0 0  2.98 0 0  3 0 0  3.02 0 0  3.04 0 0  3.06 0 0  3.08 0 0  3.1 0 0  3.12 0 0  3.14 0 0  3.16 0 0  3.18 0 0  3.2 0 0  3.22 0 0  3.24 0 0  3.26 0 0  3.28 0 0  3.3 0 0  3.32 0 0  3.34 0 0  3.36 0 0  3.38 0 0  3.4 0 0  3.42 0 0  3.44 0 0  3.46 0 0  3.48 0 0  3.5 0 0  3.52 0 0  3.54 0 0  3.56 0 0  3.58 0 0  3.6 0 0  3.62 0 0  3.64 0 0  3.66 0 0  3.68 0 0  3.7 0 0  3.72 0 0  3.74 0 0  3.76 0 0  3.78 0 0  3.8 0 0  3.82 0 0  3.84 0 0  3.86 0 0  3.88 0 0  3.9 0 0  3.92 0 0  3.94 0 0  3.96 0 0  3.98 0 0  4 0 0  0 0.02 0  0.02 0.02 0  0.04 0.02 0  0.06 0.02 0  0.08 0.02 0  0.1 0.02 0  0.12 0.02 0  0.14 0.02 0  0.16 0.02 0  0.18 0.02 0  0.2 0.02 0  0.22 0.02 0  0.24 0.02 0  0.26 0.02 0  0.28 0.02 0  0.3 0.02 0  0.32 0.02 0  0.34 0.02 0  0.36 0.02 0  0.38 0.02 0  0.4 0.02 0  0.42 0.02 0  0.44 0.02 0  0.46 0.02 0  0.48 0.02 0  0.5 0.02 0  0.52 0.02 0  0.54 0.02 0  0.5600000000000001 0.02 0  0.58 0.02 0  0.6 0.02 0  0.62 0.02 0  0.64 0.02 0  0.66 0.02 0  0.68 0.02 0  0.7 0.02 0  0.72 0.02 0  0.74 0.02 0  0.76 0.02 0  0.78 0.02 0  0.8 0.02 0  0.82 0.02 0  0.84 0.02 0  0.86 0.02 0  0.88 0.02 0  0.9 0.02 0  0.92 0.02 0  0.9399999999999999 0.02 0  0.96 0.02 0  0.98 0.02 0  1 0.02 0  1.02 0.02 0  1.04 0.02 0  1.06 0.02 0  1.08 0.02 0  1.1 0.02 0  1.12 0.02 0  1.14 0.02 0  1.16 0.02 0  1.18 0.02 0  1.2 0.02 0  1.22 0.02 0  1.24 0.02 0  1.26 0.02 0  1.28 0.02 0  1.3 0.02 0  1.32 0.02 0  1.34 0.02 0  1.36 0.02 0  1.38 0.02 0  1.4 0.02 0  1.42 0.02 0  1.44 0.02 0  1.46 0.02 0  1.48 0.02 0  1.5 0.02 0  1.52 0.02 0  1.54 0.02 0  1.56 0.02 0  1.58 0.02 0  1.6 0.02 0  1.62 0.02 0  1.64 0.02 0  1.66 0.02 0  1.68 0.02 0  1.7 0.02 0  1.72 0.02 0  1.74 0.02 0  1.76 0.02 0  1.78 0.02 0  1.8 0.02 0  1.82 0.02 0  1.84 0.02 0  1.86 0.02 0  1.88 0.02 0  1.9 0.02 0  1.92 0.02 0  1.94 0.02 0  1.96 0.02 0  1.98 0.02 0  2 0.02 0  2.02 0.02 0  2.04 0.02 0  2.06 0.02 0  2.08 0.02 0  2.1 0.02 0  2.12 0.02 0  2.14 0.02 0  2.16 0.02 0  2.18 0.02 0  2.2 0.02 0  2.22 0.02 0  2.24 0.02 0  2.26 0.02 0  2.28 0.02 0  2.3 0.02 0  2.32 0.02 0  2.34 0.02 0  2.36 0.02 0  2.38 0.02 0  2.4 0.02 0  2.42 0.02 0  2.44 0.02 0  2.46 0.02 0  2.48 0.02 0  2.5 0.02 0  2.52 0.02 0  2.54 0.02 0  2.56 0.02 0  2.58 0.02 0  2.6 0.02 0  2.62 0.02 0  2.64 0.02 0  2.66 0.02 0  2.68 0.02 0  2.7 0.02 0  2.72 0.02 0  2.74 0.02 0  2.76 0.02 0  2.78 0.02 0  2.8 0.02 0  2.82 0.02 0  2.84 0.02 0  2.86 0.02 0  2.88 0.02 0  2.9 0.02 0  2.92 0.02 0  2.94 0.02 0  2.96 0.02 0  2.98 0.02 0  3 0.02 0  3.02 0.02 0  3.04 0.02 0  3.06 0.02 0  3.08 0.02 0  3.1 0.02 0  3.12 0.02 0  3.14 0.02 0  3.16 0.02 0  3.18 0.02 0  3.2 0.02 0  3.22 0.02 0  3.24 0.02 0  3.26 0.02 0  3.28 0.02 0  3.3 0.02 0  3.32 0.02 0  3.34 0.02 0  3.36 0.02 0  3.38 0.02 0  3.4 0.02 0  3.42 0.02 0  3.44 0.02 0  3.46 0.02 0  3.48 0.02 0  3.5 0.02 0  3.52 0.02 0  3.54 0.02 0  3.56 0.02 0  3.58 0.02 0  3.6 0.02 0  3.62 0.02 0  3.64 0.02 0  3.66 0.02 0  3.68 0.02 0  3.7 0.02 0  3.72 0.02 0  3.74 0.02 0  3.76 0.02 0  3.78 0.02 0  3.8 0.02 0  3.82 0.02 0  3.84 0.02 0  3.86 0.02 0  3.88 0.02 0  3.9 0.02 0  3.92 0.02 0  3.94 0.02 0  3.96 0.02 0  3.98 0.02 0  4 0.02 0  0 0.04 0  0.02 0.04 0  0.04 0.04 0  0.06 0.04 0  0.08 0.04 0  0.1 0.04 0  0.12 0.04 0  0.14 0.04 0  0.16 0.04 0  0.18 0.04 0  0.2 0.04 0  0.22 0.04 0  0.24 0.04 0  0.26 0.04 0  0.28 0.04 0  0.3 0.04 0  0.32 0.04 0  0.34 0.04 0  0.36 0.04 0  0.38 0.04 0  0.4 0.04 0  0.42 0.04 0  0.44 0.04 0  0.46 0.04 0  0.48 0.04 0  0.5 0.04 0  0.52 0.04 0  0.54 0.04 0  0.5600000000000001 0.04 0  0.58 0.04 0  0.6 0.04 0  0.62 0.04 0  0.64 0.04 0  0.66 0.04 0  0.68 0.04 0  0.7 0.04 0  0.72 0.04 0  0.74 0.04 0  0.76 0.04 0  0.78 0.04 0  0.8 0.04 0  0.82 0.04 0  0.84 0.04 0  0.86 0.04 0  0.88 0.04 0  0.9 0.04 0  0.92 0.04 0  0.9399999999999999 0.04 0  0.96 0.04 0  0.98 0.04 0  1 0.04 0  1.02 0.04 0  1.04 0.04 0  1.06 0.04 0  1.08 0.04 0  1.1 0.04 0  1.12 0.04 0  1.14 0.04 0  1.16 0.04 0  1.18 0.04 0  1.2 0.04 0  1.22 0.04 0  1.24 0.04 0  1.26 0.04 0  1.28 0.04 0  1.3 0.04 0  1.32 0.04 0  1.34 0.04 0  1.36 0.04 0  1.38 0.04 0  1.4 0.04 0  1.42 0.04 0  1.44 0.04 0  1.46 0.04 0  1.48 0.04 0  1.5 0.04 0  1.52 0.04 0  1.54 0.04 0  1.56 0.04 0  1.58 0.04 0  1.6 0.04 0  1.62 0.04 0  1.64 0.04 0  1.66 0.04 0  1.68 0.04 0  1.7 0.04 0  1.72 0.04 0  1.74 0.04 0  1.76 0.04 0  1.78 0.04 0  1.8 0.04 0  1.82 0.04 0  1.84 0.04 0  1.86 0.04 0  1.88 0.04 0  1.9 0.04 0  1.92 0.04 0  1.94 0.04 0  1.96 0.04 0  1.98 0.04 0  2 0.04 0  2.02 0.04 0  2.04 0.04 0  2.06 0.04 0  2.08 0.04 0  2.1 0.04 0  2.12 0.04 0  2.14 0.04 0  2.16 0.04 0  2.18 0.04 0  2.2 0.04 0  2.22 0.04 0  2.24 0.04 0  2.26 0.04 0  2.28 0.04 0  2.3 0.04 0  2.32 0.04 0  2.34 0.04 0  2.36 0.04 0  2.38 0.04 0  2.4 0.04 0  2.42 0.04 0  2.44 0.04 0  2.46 0.04 0  2.48 0.04 0  2.5 0.04 0  2.52 0.04 0  2.54 0.04 0  2.56 0.04 0  2.58 0.04 0  2.6 0.04 0  2.62 0.04 0  2.64 0.04 0  2.66 0.04 0  2.68 0.04 0  2.7 0.04 0  2.72 0.04 0  2.74 0.04 0  2.76 0.04 0  2.78 0.04 0  2.8 0.04 0  2.82 0.04 0  2.84 0.04 0  2.86 0.04 0  2.88 0.04 0  2.9 0.04 0  2.92 0.04 0  2.94 0.04 0  2.96 0.04 0  2.98 0.04 0  3 0.04 0  3.02 0.04 0  3.04 0.04 0  3.06 0.04 0  3.08 0.04 0  3.1 0.04 0  3.12 0.04 0  3.14 0.04 0  3.16 0.04 0  3.18 0.04 0  3.2 0.04 0  3.22 0.04 0  3.24 0.04 0  3.26 0.04 0  3.28 0.04 0  3.3 0.04 0  3.32 0.04 0  3.34 0.04 0  3.36 0.04 0  3.38 0.04 0  3.4 0.04 0  3.42 0.04 0  3.44 0.04 0  3.46 0.04 0  3.48 0.04 0  3.5 0.04 0  3.52 0.04 0  3.54 0.04 0  3.56 0.04 0  3.58 0.04 0  3.6 0.04 0  3.62 0.04 0  3.64 0.04 0  3.66 0.04 0  3.68 0.04 0  3.7 0.04 0  3.72 0.04 0  3.74 0.04 0  3.76 0.04 0  3.78 0.04 0  3.8 0.04 0  3.82 0.04 0  3.84 0.04 0  3.86 0.04 0  3.88 0.04 0  3.9 0.04 0  3.92 0.04 0  3.94 0.04 0  3.96 0.04 0  3.98 0.04 0  4 0.04 0  0 0.06 0  0.02 0.06 0  0.04 0.06 0  0.06 0.06 0  0.08 0.06 0  0.1 0.06 0  0.12 0.06 0  0.14 0.06 0  0.16 0.06 0  0.18 0.06 0  0.2 0.06 0  0.22 0.06 0  0.24 0.06 0  0.26 0.06 0  0.28 0.06 0  0.3 0.06 0  0.32 0.06 0  0.34 0.06 0  0.36 0.06 0  0.38 0.06 0  0.4 0.06 0  0.42 0.06 0  0.44 0.06 0  0.46 0.06 0  0.48 0.06 0  0.5 0.06 0  0.52 0.06 0  0.54 0.06 0  0.5600000000000001 0.06 0  0.58 0.06 0  0.6 0.06 0  0.62 0.06 0  0.64 0.06 0  0.66 0.06 0  0.68 0.06 0  0.7 0.06 0  0.72 0.06 0  0.74 0.06 0  0.76 0.06 0  0.78 0.06 0  0.8 0.06 0  0.82 0.06 0  0.84 0.06 0  0.86 0.06 0  0.88 0.06 0  0.9 0.06 0  0.92 0.06 0  0.9399999999999999 0.06 0  0.96 0.06 0  0.98 0.06 0  1 0.06 0  1.02 0.06 0  1.04 0.06 0  1.06 0.06 0  1.08 0.06 0  1.1 0.06 0  1.12 0.06 0  1.14 0.06 0  1.16 0.06 0  1.18 0.06 0  1.2 0.06 0  1.22 0.06 0  1.24 0.06 0  1.26 0.06 0  1.28 0.06 0  1.3 0.06 0  1.32 0.06 0  1.34 0.06 0  1.36 0.06 0  1.38 0.06 0  1.4 0.06 0  1.42 0.06 0  1.44 0.06 0  1.46 0.06 0  1.48 0.06 0  1.5 0.06 0  1.52 0.06 0  1.54 0.06 0  1.56 0.06 0  1.58 0.06 0  1.6 0.06 0  1.62 0.06 0  1.64 0.06 0  1.66 0.06 0  1.68 0.06 0  1.7 0.06 0  1.72 0.06 0  1.74 0.06 0  1.76 0.06 0  1.78 0.06 0  1.8 0.06 0  1.82 0.06 0  1.84 0.06 0  1.86 0.06 0  1.88 0.06 0  1.9 0.06 0  1.92 0.06 0  1.94 0.06 0  1.96 0.06 0  1.98 0.06 0  2 0.06 0  2.02 0.06 0  2.04 0.06 0  2.06 0.06 0  2.08 0.06 0  2.1 0.06 0  2.12 0.06 0  2.14 0.06 0  2.16 0.06 0  2.18 0.06 0  2.2 0.06 0  2.22 0.06 0  2.24 0.06 0  2.26 0.06 0  2.28 0.06 0  2.3 0.06 0  2.32 0.06 0  2.34 0.06 0  2.36 0.06 0  2.38 0.06 0  2.4 0.06 0  2.42 0.06 0  2.44 0.06 0  2.46 0.06 0  2.48 0.06 0  2.5 0.06 0  2.52 0.06 0  2.54 0.06 0  2.56 0.06 0  2.58 0.06 0  2.6 0.06 0  2.62 0.06 0  2.64 0.06 0  2.66 0.06 0  2.68 0.06 0  2.7 0.06 0  2.72 0.06 0  2.74 0.06 0  2.76 0.06 0  2.78 0.06 0  2.8 0.06 0  2.82 0.06 0  2.84 0.06 0  2.86 0.06 0  2.88 0.06 0  2.9 0.06 0  2.92 0.06 0  2.94 0.06 0  2.96 0.06 0  2.98 0.06 0  3 0.06 0  3.02 0.06 0  3.04 0.06 0  3.06 0.06 0  3.08 0.06 0  3.1 0.06 0  3.12 0.06 0  3.14 0.06 0  3.16 0.06 0  3.18 0.06 0  3.2 0.06 0  3.22 0.06 0  3.24 0.06 0  3.26 0.06 0  3.28 0.06 0  3.3 0.06 0  3.32 0.06 0  3.34 0.06 0  3.36 0.06 0  3.38 0.06 0  3.4 0.06 0  3.42 0.06 0  3.44 0.06 0  3.46 0.06 0  3.48 0.06 0  3.5 0.06 0  3.52 0.06 0  3.54 0.06 0  3.56 0.06 0  3.58 0.06 0  3.6 0.06 0  3.62 0.06 0  3.64 0.06 0  3.66 0.06 0  3.68 0.06 0  3.7 0.06 0  3.72 0.06 0  3.74 0.06 0  3.76 0.06 0  3.78 0.06 0  3.8 0.06 0  3.82 0.06 0  3.84 0.06 0  3.86 0.06 0  3.88 0.06 0  3.9 0.06 0  3.92 0.06 0  3.94 0.06 0  3.96 0.06 0  3.98 0.06 0  4 0.06 0  0 0.08 0  0.02 0.08 0
[...]
<PointData  Scalars="f_56"> 
<DataArray  type="Float64"  Name="f_56"  format="ascii">3.0019395884416633e+02  1.3706932248917479e+02  1.2286982470373826e+02  1.1596134208364863e+02  1.1299595695777204e+02  1.1168768612629317e+02  1.1113201959620841e+02  1.1092894796284830e+02  1.1088218391116135e+02  1.1088863655425845e+02  1.1089207753558459e+02  1.1086162690818969e+02  1.1078086385887875e+02  1.1064192237304813e+02  1.1044211241974932e+02  1.1018190227495651e+02  1.0986367238801115e+02  1.0949092536889094e+02  1.0906777540700361e+02  1.0859861417691320e+02  1.0808789116471868e+02  1.0753996984536741e+02  1.0695903508402293e+02  1.0634903564655086e+02  1.0571365103601833e+02  1.0505627529199252e+02  1.0438001263182754e+02  1.0368768131470610e+02  1.0298182313478999e+02  1.0226471666377294e+02  1.0153839286929869e+02  1.0080465210053515e+02  1.0006508169944811e+02  9.9321073694735176e+01  9.8573842184440537e+01  9.7824440126456693e+01  9.7073775342366261e+01  9.6322625606582477e+01  9.5571652743404769e+01  9.4821415693723182e+01  9.4072382542667683e+01  9.3324941521876752e+01  9.2579411016468768e+01  9.1836048618662360e+01  9.1095059278259214e+01  9.0356602605316482e+01  8.9620799383399032e+01  8.8887737352991181e+01  8.8157476324274498e+01  8.7430052677413968e+01  8.6705483306230064e+01  8.5983769058670418e+01  8.5264897724412577e+01  8.4548846616721193e+01  8.3835584792344292e+01  8.3125074949838066e+01  8.2417275043341107e+01  8.1712139645618109e+01  8.1009621091038710e+01  8.0309670426216258e+01  7.9612238193160323e+01  7.8917275067391415e+01  7.8224732370813058e+01  7.7534562477090546e+01  7.6846719125219295e+01  7.6161157655057409e+01  7.5477835176970331e+01  7.4796710686276981e+01  7.4117745131644241e+01  7.3440901445615751e+01  7.2766144544129759e+01  7.2093441301122468e+01  7.1422760503279889e+01  7.0754072789387052e+01  7.0087350577994727e+01  6.9422567986559486e+01  6.8759700744684523e+01  6.8098726103691817e+01  6.7439622744319109e+01  6.6782370684072546e+01  6.6126951185371809e+01  6.5473346665541854e+01  6.4821540609348276e+01  6.4171517484599988e+01  6.3523262661424887e+01  6.2876762335301443e+01  6.2232003454185481e+01  6.1588973649839090e+01  6.0947661173281887e+01  6.0308054834534346e+01  5.9670143946398426e+01  5.9033918272316285e+01  5.8399367978072007e+01  5.7766483587300904e+01  5.7135255940457156e+01  5.6505676157324984e+01  5.5877735602607963e+01  5.5251425854613210e+01  5.4626738676749760e+01  5.4003665991685892e+01  5.3382199857944705e+01  5.2762332448820267e+01  5.2144056033393831e+01  5.1527362959533683e+01  5.0912245638639412e+01  5.0298696532131864e+01  4.9686708139330932e+01  4.9076272986841460e+01  4.8467383619125428e+01  4.7860032590263430e+01  4.7254212456712239e+01  4.6649915771110052e+01  4.6047135076901057e+01  4.5445862903727267e+01  4.4846091763664575e+01  4.4247814148022343e+01  4.3651022524908193e+01  4.3055709337368917e+01  4.2461867002140295e+01  4.1869487909012442e+01  4.1278564420882688e+01  4.0689088874385405e+01  4.0101053581450245e+01  3.9514450831429045e+01  3.8929272894435712e+01  3.8345512025625339e+01  3.7763160470790048e+01  3.7182210473472630e+01  3.6602654283990042e+01  3.6024484170455111e+01  3.5447692432454915e+01  3.4872271417802715e+01  3.4298213542880056e+01  3.3725511317365012e+01  3.3154157374175874e+01  3.2584144505299484e+01  3.2015465705237482e+01  3.1448114222466970e+01  3.0882083621393633e+01  3.0317367855778613e+01  2.9753961355999365e+01  2.9191859132410833e+01  2.8631056897448229e+01  2.8071551209195949e+01  2.7513339640632971e+01  2.6956420977325340e+01  2.6400795449159521e+01  2.5846465000288703e+01  2.5293433603167944e+01  2.4741707623314294e+01  2.4191296241160924e+01  2.3642211939736296e+01  2.3094471065934979e+01  2.2548094475848014e+01  2.2003108274238425e+01  2.1459544660103354e+01  2.0917442890630390e+01  2.0376850377672088e+01  1.9837823931407655e+01  1.9300431166860641e+01  1.8764752090824857e+01  1.8230880886275713e+01  1.7698927913981844e+01  1.7169021950085661e+01  1.6641312680388001e+01  1.6115973471555755e+01  1.5593204439685341e+01  1.5073235837020027e+01  1.4556331775652165e+01  1.4042794307228634e+01  1.3532967874405431e+01  1.3027244148336333e+01  1.2526067262349867e+01  1.2029939446952408e+01  1.1539427065916081e+01  1.1055167044830984e+01  1.0577873673362948e+01  1.0108345748986075e+01  9.6474740124876970e+00  9.1962488020731303e+00  8.7557678205301173e+00  8.3272438660332799e+00  7.9120123144561809e+00  7.5115380510740426e+00  7.1274214175841601e+00  6.7614025435514247e+00  6.4153631291634472e+00  6.0913242762136210e+00  5.7914382095348547e+00  5.5179704870576076e+00  5.2732671728167375e+00  5.0596976764456203e+00  4.8795569924254556e+00  4.7348973188460173e+00  4.6272241166842010e+00  4.5568886717353214e+00  4.5221667445962632e+00  4.5227277797728114e+00  4.5589011856948574e+00  4.7306129515373607e+00  4.0603369269535587e+00  1.2360108536793152e+02  1.4194408137086344e+02  1.3184326612135067e+02  1.2183682666692491e+02  1.1601457084372517e+02  1.1258085913936686e+02  1.1045819503810702e+02  1.0908618317872312e+02  1.0815571283540498e+02  1.0748645090278346e+02  1.0696899430200403e+02  1.0653515903417480e+02  1.0614174517825683e+02  1.0576122066462682e+02  1.0537614812772064e+02  1.0497572975088541e+02  1.0455359887527585e+02  1.0410637151555406e+02  1.0363267547958952e+02  1.0313248792399330e+02  1.0260667694399152e+02  1.0205668103642348e+02  1.0148428348894487e+02  1.0089145320054352e+02  1.0028023264431218e+02  9.9652659672693005e+01  9.9010713839335068e+01  9.8356280596857971e+01  9.7691128576209195e+01  9.7016896443494602e+01  9.6335086745997330e+01  9.5647064818710106e+01  9.4954061304323005e+01  9.4257177195785076e+01  9.3557390577066570e+01  9.2855564439114644e+01  9.2152455101648627e+01  9.1448720889400576e+01  9.0744930802535876e+01  9.0041572991659521e+01  8.9339062902695034e+01  8.8637750999541524e+01  8.7937930005339780e+01  8.7239841628746944e+01  8.6543682760893205e+01  8.5849611143438764e+01  8.5157750519001397e+01  8.4468195283126548e+01  8.3781014662365422e+01  8.3096256446788232e+01  8.2413950307205866e+01  8.1734110728583687e+01  8.1056739590996258e+01  8.0381828429235256e+01  7.9709360400829937e+01  7.9039311991133061e+01  7.8371654482426479e+01  7.7706355212172042e+01  7.7043378643859029e+01  7.6382687271979890e+01  7.5724242380813351e+01  7.5068004675016695e+01  7.4413934798242792e+01  7.3761993754475284e+01  7.3112143245132813e+01  7.2464345933794093e+01  7.1818565648873076e+01  7.1174767533535004e+01  7.0532918151048449e+01  6.9892985552596954e+01  6.9254939313999685e+01  6.8618750546684112e+01  6.7984391887646041e+01  6.7351837472619835e+01  6.6721062895779724e+01  6.6092045159216553e+01  6.5464762614560357e+01  6.4839194899033615e+01  6.4215322867729924e+01  6.3593128523661704e+01  6.2972594946784383e+01  6.2353706223084970e+01  6.1736447374568627e+01  6.1120804290747188e+01  6.0506763662280484e+01  5.9894312916996604e+01  5.9283440158760193e+01  5.8674134109222550e+01  5.8066384052809717e+01  5.7460179784747510e+01  5.6855511562342457e+01  5.6252370059491867e+01  5.5650746324221849e+01  5.5050631739323990e+01  5.4452017985965504e+01  5.3854897010045192e+01  5.3259260991343524e+01  5.2665102315207371e+01  5.2072413546616573e+01  5.1481187406666599e+01  5.0891416751073116e+01  5.0303094550803067e+01  4.9716213874513592e+01  4.9130767872743199e+01  4.8546749763796655e+01  4.7964152821058292e+01  4.7382970361730429e+01  4.6803195736823469e+01  4.6224822322402780e+01  4.5647843511854553e+01  4.5072252709142532e+01  4.4498043323117287e+01  4.3925208762549332e+01  4.3353742432040200e+01  4.2783637728692973e+01  4.2214888039495413e+01  4.1647486739376660e+01  4.1081427189959804e+01  4.0516702739014399e+01  3.9953306720569969e+01  3.9391232455747165e+01  3.8830473254423062e+01  3.8271022417628743e+01  3.7712873241000132e+01  3.7156019019230833e+01  3.6600453051664594e+01  3.6046168649457293e+01  3.5493159144177405e+01  3.4941417898471414e+01  3.4390938318817760e+01  3.3841713871035893e+01  3.3293738098759889e+01  3.2747004645704827e+01  3.2201507282012813e+01  3.1657239935787903e+01  3.1114196730407347e+01  3.0572372028734652e+01  3.0031760485374235e+01  2.9492357108265882e+01  2.8954157331205909e+01  2.8417157098872114e+01  2.7881352966566027e+01  2.7346742216769229e+01  2.6813322994967162e+01  2.6281094468023181e+01  2.5750057007690700e+01  2.5220212403544984e+01  2.4691564108965441e+01  2.4164117524709866e+01  2.3637880325303549e+01  2.3112862833263318e+01  2.2589078447792694e+01  2.2066544133743434e+01  2.1545280978568680e+01  2.1025314824552801e+01  2.0506676984457030e+01  1.9989405049286876e+01  1.9473543797058412e+01  1.8959146211872707e+01  1.8446274622730567e+01  1.7935001971474691e+01  1.7425413218865557e+01  1.6917606897489939e+01  1.6411696818716084e+01  1.5907813939858030e+01  1.5406108395411419e+01  1.4906751692869159e+01  1.4409939070508250e+01  1.3915892008450642e+01  1.3424860878251730e+01  1.2937127707165038e+01  1.2453009022131042e+01  1.1972858724363292e+01  1.1497070926606181e+01  1.1026082661206829e+01  1.0560376336071842e+01  1.0100481773724409e+01  9.6469776138892609e+00  9.2004917841443241e+00  8.7617006394370787e+00  8.3313262233297767e+00  7.9101308910646049e+00  7.4989082193530843e+00  7.0984686512753816e+00  6.7096175867747894e+00  6.3331224605669663e+00  5.9696634565205304e+00  5.6197593748057528e+00  5.2836548665914282e+00  4.9611460754965950e+00  4.6513054562779743e+00  4.3520369723849530e+00  4.0593380236814012e+00  3.7660435484553085e+00  3.4596534155142979e+00  3.1185156550294821e+00  2.7052911072727941e+00  2.1728866191854719e+00  1.8027121535390609e+00  4.0829234861706452e+00  1.0084446825641130e+01  8.9868042066378763e+01  1.0967792293808691e+02  1.1672136359326477e+02  1.1555726551678715e+02  1.1261182947755360e+02  1.0987877396412861e+02  1.0770456288550690e+02  1.0603087021859388e+02  1.0473689560527701e+02  1.0371493604733311e+02  1.0288212869124089e+02  1.0217771796555751e+02  1.0155798954789859e+02  1.0099177217875933e+02  1.0045698698341536e+02  9.9938123236399122e+01  9.9424419313508238e+01  9.8908554183928956e+01  9.8385702512395227e+01  9.7852848167982344e+01  9.7308282191977895e+01  9.6751233433782062e+01  9.6181595449980961e+01  9.5599723889220229e+01  9.5006285941973019e+01  9.4402148558115215e+01  9.3788295734266242e+01  9.3165767725103521e+01  9.2535616861819662e+01  9.1898875985343594e+01  9.1256536471429570e+01  9.0609533542007284e+01  8.9958737093198252e+01  8.9304946675092637e+01  8.8648889566606471e+01  8.7991221125631554e+01  8.7332526777982025e+01  8.6673325151538677e+01  8.6014071973976286e+01  8.5355164440455184e+01  8.4696945827221157e+01  8.4039710182041830e+01  8.3383706965759544e+01  8.2729145553648280e+01  8.2076199532270920e+01  8.1425010748684315e+01  8.0775693085393186e+01  8.0128335947173213e+01  7.9483007455651901e+01  7.8839757354753871e+01  7.8198619635535167e+01  7.7559614892741436e+01  7.6922752427953398e+01  7.6288032115879531e+01  7.5655446051149355e+01  7.5024979993335222e+01  7.4396614627710335e+01  7.3770326658808187e+01  7.3146089753173499e+01  7.2523875346818187e+01  7.1903653331855878e+01  7.1285392635911421e+01  7.0669061706747229e+01  7.0054628913489466e+01  6.9442062874921135e+01  6.8831332724246010e+01  6.8222408318812654e+01  6.7615260402456414e+01  6.7009860727174299e+01  6.6406182140309213e+01  6.5804198642474702e+01  6.5203885421012501e+01  6.4605218863065119e+01  6.4008176551966798e+01  6.3412737249932142e+01  6.2818880869989520e+01  6.2226588439281898e+01  6.1635842055919873e+01  6.1046624840974921e+01  6.0458920887137950e+01  5.9872715205251822e+01  5.9287993669684013e+01  5.8704742963491626e+01  5.8122950523924892e+01  5.7542604488939631e+01  5.6963693645130327e+01  5.6386207377416355e+01  5.5810135620694325e+01  5.5235468813807060e+01  5.4662197855720635e+01  5.4090314064240815e+01  5.3519809137109888e+01  5.2950675115541010e+01  5.2382904350340972e+01  5.1816489470196359e+01  5.1251423352462176e+01  5.0687699096156635e+01  5.0125309997065607e+01  4.9564249524946845e+01  4.9004511302714846e+01  4.8446089087462802e+01  4.7888976753273944e+01  4.7333168275631103e+01  4.6778657717441554e+01  4.6225439216518780e+01  4.5673506974376402e+01  4.5122855246352046e+01  4.4573478332895775e+01  4.4025370571972061e+01  4.3478526332515941e+01  4.2932940008858900e+01  4.2388606016036888e+01  4.1845518786010494e+01  4.1303672764701979e+01  4.0763062409765595e+01  4.0223682189197788e+01  3.9685526580628448e+01  3.9148590071403895e+01  3.8612867159388713e+01  3.8078352354531482e+01  3.7545040181322946e+01  3.7012925181993445e+01  3.6482001920735243e+01  3.5952264988935141e+01  3.5423709011548297e+01  3.4896328654730787e+01  3.4370118634985680e+01  3.3845073729966344e+01  3.3321188791183985e+01  3.2798458758974242e+01  3.2276878679937830e+01  3.1756443727502255e+01  3.1237149225739326e+01  3.0718990677268245e+01  3.0201963795771317e+01  2.9686064543706966e+01  2.9171289176342043e+01  2.8657634292682573e+01  2.8145096894662586e+01  2.7633674455669574e+01  2.7123364999732782e+01  2.6614167193027924e+01  2.6106080449347250e+01  2.5599105051435835e+01  2.5093242290375336e+01  2.4588494625440031e+01  2.4084865866824938e+01  2.3582361384379368e+01  2.3080988345188111e+01  2.2580755983544350e+01  2.2081675906733249e+01  2.1583762440629673e+01  2.1087033018922330e+01  2.0591508620283154e+01  2.0097214257579779e+01  1.9604179523374949e+01  1.9112439195979633e+01  1.8622033909532931e+01  1.8133010891761096e+01  1.7645424772026381e+01  1.7159338460915503e+01  1.6674824102155394e+01  1.6191964094475221e+01  1.5710852179825437e+01  1.5231594590421016e+01  1.4754311243126999e+01  1.4279136965104401e+01  1.3806222727690246e+01  1.3335736858110492e+01  1.2867866188511091e+01  1.2402817089930465e+01  1.1940816323783286e+01  1.1482111624962286e+01  1.1026971907371310e+01  1.0575686954160354e+01  1.0128566417931099e+01  9.6859379096480982e+00  9.2481438941136815e+00  8.8155370294978663e+00  8.3884734810606520e+00  7.9673035917017145e+00  7.5523590874143567e+00  7.1439357082019663e+00  6.7422697485372147e+00  6.3475064213078474e+00  5.9596571838927153e+00  5.5785421920486868e+00  5.2037130871346466e+00  4.8343512460431617e+00  4.4691403579270306e+00  4.1061290257798415e+00  3.7426585453169490e+00  3.3756303188254591e+00  3.0030720144187408e+00  2.6305054602478011e+00  2.2953869963248983e+00  2.1488989330964432e+00  2.5771901474916357e+00  4.0100060590161544e+00  6.6272000435261225e+00  9.5137374035202065e+00  7.7568156063926324e+01  9.1102940554195683e+01  1.0049072643291075e+02  1.0434438906332880e+02  1.0490614384789632e+02  1.0408958483211089e+02  1.0284928034869992e+02  1.0157489817622768e+02  1.0040140431709796e+02  9.9359741640597136e+01  9.8441663528487751e+01  9.7626528296527653e+01  9.6891991437819144e+01  9.6217942018781144e+01  9.5587635851373165e+01  9.4987707549501835e+01  9.4407778562873077e+01  9.3839962517434543e+01  9.3278388455609402e+01  9.2718784168506886e+01  9.2158128559863499e+01  9.1594368747274814e+01  9.1026193172374832e+01  9.0452851304199612e+01  8.9874011303063028e+01  8.9289648256931912e+01  8.8699956880221833e+01  8.8105283711954328e+01  8.7506074819791451e+01  8.6902835811384108e+01  8.6296101596118447e+01  8.5686413853924208e+01  8.5074304577724916e+01  8.4460284383044495e+01  8.3844834539327124e+01  8.3228401886474089e+01  8.2611395967592983e+01  8.1994187843706513e+01  8.1377110164707261e+01  8.0760458158401036e+01  8.0144491270330590e+01  7.9529435244206994e+01  7.8915484479066507e+01  7.8302804536557872e+01  7.7691534701804784e+01  7.7081790525524070e+01  7.6473666294224842e+01  7.5867237390913957e+01  7.5262562520669590e+01  7.4659685785152902e+01  7.4058638597421591e+01  7.3459441434125424e+01  7.2862105426471075e+01  7.2266633794386308e+01  7.1673023130691419e+01  7.1081264543536676e+01  7.0491344666347288e+01  6.9903246545073742e+01  6.9316950412675624e+01  6.8732434360817848e+01  6.8149674918346307e+01  6.7568647545840633e+01  6.6989327055057487e+01  6.6411687961353607e+01  6.5835704776924601e+01  6.5261352251711173e+01  6.4688605568596202e+01  6.4117440498645422e+01  6.3547833521798907e+01  6.2979761917735374e+01  6.2413203831254918e+01  6.1848138315977060e+01  6.1284545359735297e+01  6.0722405894701240e+01  6.0161701794874880e+01  5.9602415863221971e+01  5.9044531810462104e+01  5.8488034227315822e+01  5.7932908551676498e+01  5.7379141031942723e+01  5.6826718687729510e+01  5.6275629268795193e+01  5.5725861212989251e+01  5.5177403603913191e+01  5.4630246128793480e+01  5.4084379036995927e+01  5.3539793099602427e+01  5.2996479570220394e+01  5.2454430147381231e+01  5.1913636938535667e+01  5.1374092425872291e+01  5.0835789434025294e+01  5.0298721099594729e+01  4.9762880842691203e+01  4.9228262340293433e+01  4.8694859501579707e+01  4.8162666445044835e+01  4.7631677477396842e+01  4.7101887074269506e+01  4.6573289862500658e+01  4.6045880604086463e+01  4.5519654181621064e+01  4.4994605585214288e+01  4.4470729900732884e+01  4.3948022299452433e+01  4.3426478028837451e+01  4.2906092404567069e+01  4.2386860803642882e+01  4.1868778658553161e+01  4.1351841452459666e+01  4.0836044715276131e+01  4.0321384020736382e+01  3.9807854984278883e+01  3.9295453261809847e+01  3.8784174549291976e+01  3.8274014583112475e+01  3.7764969141335506e+01  3.7257034045688847e+01  3.6750205164424194e+01  3.6244478416065483e+01  3.5739849774011482e+01  3.5236315272111803e+01  3.4733871011258621e+01  3.4232513167150593e+01  3.3732237999161647e+01  3.3233041860662937e+01  3.2734921210798532e+01  3.2237872627886652e+01  3.1741892824842637e+01  3.1246978666550959e+01  3.0753127189757400e+01  3.0260335625646253e+01  2.9768601425478671e+01  2.9277922289780019e+01  2.8788296201448656e+01  2.8299721463388117e+01  2.7812196741263328e+01  2.7325721111972438e+01  2.6840294118683673e+01  2.6355915833257622e+01  2.5872586926894229e+01  2.5390308750103255e+01  2.4909083423081832e+01  2.4428913937722502e+01  2.3949804272584693e+01  2.3471759522131276e+01  2.2994786041872462e+01  2.2518891610837404e+01  2.2044085613107743e+01  2.1570379240081692e+01  2.1097785714863704e+01  2.0626320540814000e+01  2.0156001775349772e+01  1.9686850330454622e+01  1.9218890300925207e+01  1.8752149320871123e+01  1.8286658948503195e+01  1.7822455078412137e+01  1.7359578379921683e+01  1.6898074757983874e+01  1.6437995832689868e+01  1.5979399430582397e+01  1.5522350078907262e+01  1.5066919491207717e+01  1.4613187028763249e+01  1.4161240118667431e+01  1.3711174604006171e+01  1.3263094996119113e+01  1.2817114592180932e+01  1.2373355413667879e+01  1.1931947912815712e+01  1.1493030384690936e+01  1.1056748011986729e+01  1.0623251459352169e+01  1.0192694923119006e+01  9.7652335334032223e+00  9.3410199992220306e+00  8.9202003883965890e+00  8.5029089479199360e+00  8.0892619100578660e+00  7.6793503167591055e+00  7.2732320739118519e+00  6.8709238041317473e+00  6.4723937761375465e+00  6.0775586110336688e+00  5.6862893610090852e+00  5.2984385768107156e+00  4.9139127994215031e+00  4.5328429348495067e+00  4.1559678923654255e+00  3.7854915256503849e+00  3.4270086757273277e+00  3.0938455146036516e+00  2.8164969085881126e+00  2.6599750443939643e+00  2.7403667662759856e+00  3.2038580802391752e+00  4.1680703036223674e+00  5.6836371905293106e+00  7.6161606214467916e+00  9.4314439797633298e+00  6.9177927403191731e+01  7.9295946704326013e+01  8.7791370221996388e+01  9.3174633958400165e+01  9.5812966178077914e+01  9.6680986042530662e+01  9.6581711645683654e+01  9.6012907137861248e+01  9.5246970755480334e+01  9.4422238953855711e+01  9.3603947326530530e+01  9.2819234056643168e+01  9.2076113427354898e+01  9.1373499167844571e+01  9.0706409435706178e+01  9.0068611269603068e+01  8.9453911721977164e+01  8.8856738141648805e+01  8.8272350052957677e+01  8.7696865551059219e+01  8.7127199817513826e+01  8.6560967424123390e+01  8.5996375229627105e+01  8.5432119193483160e+01  8.4867291152356827e+01  8.4301297727359724e