<?xml version="1.0"?>
<VTKFile type="UnstructuredGrid"  version="0.1"  >
<UnstructuredGrid>
<Piece  NumberOfPoints="20251" NumberOfCells="40000">
<Points>
<DataArray  type="Float64"  NumberOfComponents="3"  format="ascii">0 0 0  0.02 0 0  0.04 0 0  0.06 0 0  0.08 0 0  0.1 0 0  0.12 0 0  0.14 0 0  0.16 0 0  0.18 0 0  0.2 0 0  0.22 0 0  0.24 0 0  0.26 0 0  0.28 0 0  0.3 0 0  0.32 0 0  0.34 0 0  0.36 0 0  0.38 0 0  0.4 0 0  0.42 0 0  0.44 0 0  0.46 0 0  0.48 0 0  0.5 0 0  0.52 0 0  0.54 0 0  0.5600000000000001 0 0  0.58 0 0  0.6 0 0  0.62 0 0  0.64 0 0  0.66 0 0  0.68 0 0  0.7 0 0  0.72 0 0  0.74 0 0  0.76 0 0  0.78 0 0  0.8 0 0  0.82 0 0  0.84 0 0  0.86 0 0  0.88 0 0  0.9 0 0  0.92 0 0  0.9399999999999999 0 0  0.96 0 0  0.98 0 0  1 0 0  1.02 0 0  1.04 0 0  1.06 0 0  1.08 0 0  1.1 0 0  1.12 0 0  1.14 0 0  1.16 0 0  1.18 0 0  1.2 0 0  1.22 0 0  1.24 0 0  1.26 0 0  1.28 0 0  1.3 0 0  1.32 0 0  1.34 0 0  1.36 0 0  1.38 0 0  1.4 0 0  1.42 0 0  1.44 0 0  1.46 0 0  1.48 0 0  1.5 0 0  1.52 0 0  1.54 0 0  1.56 0 0  1.58 0 0  1.6 0 0  1.62 0 0  1.64 0 0  1.66 0 0  1.68 0 0  1.7 0 0  1.72 0 0  1.74 0 0  1.76 0 0  1.78 0 0  1.8 0 0  1.82 0 0  1.84 0 0  1.86 0 0  1.88 0 0  1.9 0 0  1.92 0 0  1.94 0 0  1.96 0 0  1.98 0 0  2 0 0  2.02 0 0  2.04 0 0  2.06 0 0  2.08 0 0  2.1 0 0  2.12 0 0  2.14 0 0  2.16 0 0  2.18 0 0  2.2 0 0  2.22 0 0  2.24 0 0  2.26 0 0  2.28 0 0  2.3 0 0  2.32 0 0  2.34 0 0  2.36 0 0  2.38 0 0  2.4 0 0  2.42 0 0  2.44 0 0  2.46 0 0  2.48 0 0  2.5 0 0  2.52 0 0  2.54 0 0  2.56 0 0  2.58 0 0  2.6 0 0  2.62 0 0  2.64 0 0  2.66 0 0  2.68 0 0  2.7 0 0  2.72 0 0  2.74 0 0  2.76 0 0  2.78 0 0  2.8 0 0  2.82 0 0  2.84 0 0  2.86 0 0  2.88 0 0  2.9 0 0  2.92 0 0  2.94 0 0  2.96 0 0  2.98 0 0  3 0 0  3.02 0 0  3.04 0 0  3.06 0 0  3.08 0 0  3.1 0 0  3.12 0 0  3.14 0 0  3.16 0 0  3.18 0 0  3.2 0 0  3.22 0 0  3.24 0 0  3.26 0 0  3.28 0 0  3.3 0 0  3.32 0 0  3.34 0 0  3.36 0 0  3.38 0 0  3.4 0 0  3.42 0 0  3.44 0 0  3.46 0 0  3.48 0 0  3.5 0 0  3.52 0 0  3.54 0 0  3.56 0 0  3.58 0 0  3.6 0 0  3.62 0 0  3.64 0 0  3.66 0 0  3.68 0 0  3.7 0 0  3.72 0 0  3.74 0 0  3.76 0 0  3.78 0 0  3.8 0 0  3.82 0 0  3.84 0 0  3.86 0 0  3.88 0 0  3.9 0 0  3.92 0 0  3.94 0 0  3.96 0 0  3.98 0 0  4 0 0  0 0.02 0  0.02 0.02 0  0.04 0.02 0  0.06 0.02 0  0.08 0.02 0  0.1 0.02 0  0.12 0.02 0  0.14 0.02 0  0.16 0.02 0  0.18 0.02 0  0.2 0.02 0  0.22 0.02 0  0.24 0.02 0  0.26 0.02 0  0.28 0.02 0  0.3 0.02 0  0.32 0.02 0  0.34 0.02 0  0.36 0.02 0  0.38 0.02 0  0.4 0.02 0  0.42 0.02 0  0.44 0.02 0  0.46 0.02 0  0.48 0.02 0  0.5 0.02 0  0.52 0.02 0  0.54 0.02 0  0.5600000000000001 0.02 0  0.58 0.02 0  0.6 0.02 0  0.62 0.02 0  0.64 0.02 0  0.66 0.02 0  0.68 0.02 0  0.7 0.02 0  0.72 0.02 0  0.74 0.02 0  0.76 0.02 0  0.78 0.02 0  0.8 0.02 0  0.82 0.02 0  0.84 0.02 0  0.86 0.02 0  0.88 0.02 0  0.9 0.02 0  0.92 0.02 0  0.9399999999999999 0.02 0  0.96 0.02 0  0.98 0.02 0  1 0.02 0  1.02 0.02 0  1.04 0.02 0  1.06 0.02 0  1.08 0.02 0  1.1 0.02 0  1.12 0.02 0  1.14 0.02 0  1.16 0.02 0  1.18 0.02 0  1.2 0.02 0  1.22 0.02 0  1.24 0.02 0  1.26 0.02 0  1.28 0.02 0  1.3 0.02 0  1.32 0.02 0  1.34 0.02 0  1.36 0.02 0  1.38 0.02 0  1.4 0.02 0  1.42 0.02 0  1.44 0.02 0  1.46 0.02 0  1.48 0.02 0  1.5 0.02 0  1.52 0.02 0  1.54 0.02 0  1.56 0.02 0  1.58 0.02 0  1.6 0.02 0  1.62 0.02 0  1.64 0.02 0  1.66 0.02 0  1.68 0.02 0  1.7 0.02 0  1.72 0.02 0  1.74 0.02 0  1.76 0.02 0  1.78 0.02 0  1.8 0.02 0  1.82 0.02 0  1.84 0.02 0  1.86 0.02 0  1.88 0.02 0  1.9 0.02 0  1.92 0.02 0  1.94 0.02 0  1.96 0.02 0  1.98 0.02 0  2 0.02 0  2.02 0.02 0  2.04 0.02 0  2.06 0.02 0  2.08 0.02 0  2.1 0.02 0  2.12 0.02 0  2.14 0.02 0  2.16 0.02 0  2.18 0.02 0  2.2 0.02 0  2.22 0.02 0  2.24 0.02 0  2.26 0.02 0  2.28 0.02 0  2.3 0.02 0  2.32 0.02 0  2.34 0.02 0  2.36 0.02 0  2.38 0.02 0  2.4 0.02 0  2.42 0.02 0  2.44 0.02 0  2.46 0.02 0  2.48 0.02 0  2.5 0.02 0  2.52 0.02 0  2.54 0.02 0  2.56 0.02 0  2.58 0.02 0  2.6 0.02 0  2.62 0.02 0  2.64 0.02 0  2.66 0.02 0  2.68 0.02 0  2.7 0.02 0  2.72 0.02 0  2.74 0.02 0  2.76 0.02 0  2.78 0.02 0  2.8 0.02 0  2.82 0.02 0  2.84 0.02 0  2.86 0.02 0  2.88 0.02 0  2.9 0.02 0  2.92 0.02 0  2.94 0.02 0  2.96 0.02 0  2.98 0.02 0  3 0.02 0  3.02 0.02 0  3.04 0.02 0  3.06 0.02 0  3.08 0.02 0  3.1 0.02 0  3.12 0.02 0  3.14 0.02 0  3.16 0.02 0  3.18 0.02 0  3.2 0.02 0  3.22 0.02 0  3.24 0.02 0  3.26 0.02 0  3.28 0.02 0  3.3 0.02 0  3.32 0.02 0  3.34 0.02 0  3.36 0.02 0  3.38 0.02 0  3.4 0.02 0  3.42 0.02 0  3.44 0.02 0  3.46 0.02 0  3.48 0.02 0  3.5 0.02 0  3.52 0.02 0  3.54 0.02 0  3.56 0.02 0  3.58 0.02 0  3.6 0.02 0  3.62 0.02 0  3.64 0.02 0  3.66 0.02 0  3.68 0.02 0  3.7 0.02 0  3.72 0.02 0  3.74 0.02 0  3.76 0.02 0  3.78 0.02 0  3.8 0.02 0  3.82 0.02 0  3.84 0.02 0  3.86 0.02 0  3.88 0.02 0  3.9 0.02 0  3.92 0.02 0  3.94 0.02 0  3.96 0.02 0  3.98 0.02 0  4 0.02 0  0 0.04 0  0.02 0.04 0  0.04 0.04 0  0.06 0.04 0  0.08 0.04 0  0.1 0.04 0  0.12 0.04 0  0.14 0.04 0  0.16 0.04 0  0.18 0.04 0  0.2 0.04 0  0.22 0.04 0  0.24 0.04 0  0.26 0.04 0  0.28 0.04 0  0.3 0.04 0  0.32 0.04 0  0.34 0.04 0  0.36 0.04 0  0.38 0.04 0  0.4 0.04 0  0.42 0.04 0  0.44 0.04 0  0.46 0.04 0  0.48 0.04 0  0.5 0.04 0  0.52 0.04 0  0.54 0.04 0  0.5600000000000001 0.04 0  0.58 0.04 0  0.6 0.04 0  0.62 0.04 0  0.64 0.04 0  0.66 0.04 0  0.68 0.04 0  0.7 0.04 0  0.72 0.04 0  0.74 0.04 0  0.76 0.04 0  0.78 0.04 0  0.8 0.04 0  0.82 0.04 0  0.84 0.04 0  0.86 0.04 0  0.88 0.04 0  0.9 0.04 0  0.92 0.04 0  0.9399999999999999 0.04 0  0.96 0.04 0  0.98 0.04 0  1 0.04 0  1.02 0.04 0  1.04 0.04 0  1.06 0.04 0  1.08 0.04 0  1.1 0.04 0  1.12 0.04 0  1.14 0.04 0  1.16 0.04 0  1.18 0.04 0  1.2 0.04 0  1.22 0.04 0  1.24 0.04 0  1.26 0.04 0  1.28 0.04 0  1.3 0.04 0  1.32 0.04 0  1.34 0.04 0  1.36 0.04 0  1.38 0.04 0  1.4 0.04 0  1.42 0.04 0  1.44 0.04 0  1.46 0.04 0  1.48 0.04 0  1.5 0.04 0  1.52 0.04 0  1.54 0.04 0  1.56 0.04 0  1.58 0.04 0  1.6 0.04 0  1.62 0.04 0  1.64 0.04 0  1.66 0.04 0  1.68 0.04 0  1.7 0.04 0  1.72 0.04 0  1.74 0.04 0  1.76 0.04 0  1.78 0.04 0  1.8 0.04 0  1.82 0.04 0  1.84 0.04 0  1.86 0.04 0  1.88 0.04 0  1.9 0.04 0  1.92 0.04 0  1.94 0.04 0  1.96 0.04 0  1.98 0.04 0  2 0.04 0  2.02 0.04 0  2.04 0.04 0  2.06 0.04 0  2.08 0.04 0  2.1 0.04 0  2.12 0.04 0  2.14 0.04 0  2.16 0.04 0  2.18 0.04 0  2.2 0.04 0  2.22 0.04 0  2.24 0.04 0  2.26 0.04 0  2.28 0.04 0  2.3 0.04 0  2.32 0.04 0  2.34 0.04 0  2.36 0.04 0  2.38 0.04 0  2.4 0.04 0  2.42 0.04 0  2.44 0.04 0  2.46 0.04 0  2.48 0.04 0  2.5 0.04 0  2.52 0.04 0  2.54 0.04 0  2.56 0.04 0  2.58 0.04 0  2.6 0.04 0  2.62 0.04 0  2.64 0.04 0  2.66 0.04 0  2.68 0.04 0  2.7 0.04 0  2.72 0.04 0  2.74 0.04 0  2.76 0.04 0  2.78 0.04 0  2.8 0.04 0  2.82 0.04 0  2.84 0.04 0  2.86 0.04 0  2.88 0.04 0  2.9 0.04 0  2.92 0.04 0  2.94 0.04 0  2.96 0.04 0  2.98 0.04 0  3 0.04 0  3.02 0.04 0  3.04 0.04 0  3.06 0.04 0  3.08 0.04 0  3.1 0.04 0  3.12 0.04 0  3.14 0.04 0  3.16 0.04 0  3.18 0.04 0  3.2 0.04 0  3.22 0.04 0  3.24 0.04 0  3.26 0.04 0  3.28 0.04 0  3.3 0.04 0  3.32 0.04 0  3.34 0.04 0  3.36 0.04 0  3.38 0.04 0  3.4 0.04 0  3.42 0.04 0  3.44 0.04 0  3.46 0.04 0  3.48 0.04 0  3.5 0.04 0  3.52 0.04 0  3.54 0.04 0  3.56 0.04 0  3.58 0.04 0  3.6 0.04 0  3.62 0.04 0  3.64 0.04 0  3.66 0.04 0  3.68 0.04 0  3.7 0.04 0  3.72 0.04 0  3.74 0.04 0  3.76 0.04 0  3.78 0.04 0  3.8 0.04 0  3.82 0.04 0  3.84 0.04 0  3.86 0.04 0  3.88 0.04 0  3.9 0.04 0  3.92 0.04 0  3.94 0.04 0  3.96 0.04 0  3.98 0.04 0  4 0.04 0  0 0.06 0  0.02 0.06 0  0.04 0.06 0  0.06 0.06 0  0.08 0.06 0  0.1 0.06 0  0.12 0.06 0  0.14 0.06 0  0.16 0.06 0  0.18 0.06 0  0.2 0.06 0  0.22 0.06 0  0.24 0.06 0  0.26 0.06 0  0.28 0.06 0  0.3 0.06 0  0.32 0.06 0  0.34 0.06 0  0.36 0.06 0  0.38 0.06 0  0.4 0.06 0  0.42 0.06 0  0.44 0.06 0  0.46 0.06 0  0.48 0.06 0  0.5 0.06 0  0.52 0.06 0  0.54 0.06 0  0.5600000000000001 0.06 0  0.58 0.06 0  0.6 0.06 0  0.62 0.06 0  0.64 0.06 0  0.66 0.06 0  0.68 0.06 0  0.7 0.06 0  0.72 0.06 0  0.74 0.06 0  0.76 0.06 0  0.78 0.06 0  0.8 0.06 0  0.82 0.06 0  0.84 0.06 0  0.86 0.06 0  0.88 0.06 0  0.9 0.06 0  0.92 0.06 0  0.9399999999999999 0.06 0  0.96 0.06 0  0.98 0.06 0  1 0.06 0  1.02 0.06 0  1.04 0.06 0  1.06 0.06 0  1.08 0.06 0  1.1 0.06 0  1.12 0.06 0  1.14 0.06 0  1.16 0.06 0  1.18 0.06 0  1.2 0.06 0  1.22 0.06 0  1.24 0.06 0  1.26 0.06 0  1.28 0.06 0  1.3 0.06 0  1.32 0.06 0  1.34 0.06 0  1.36 0.06 0  1.38 0.06 0  1.4 0.06 0  1.42 0.06 0  1.44 0.06 0  1.46 0.06 0  1.48 0.06 0  1.5 0.06 0  1.52 0.06 0  1.54 0.06 0  1.56 0.06 0  1.58 0.06 0  1.6 0.06 0  1.62 0.06 0  1.64 0.06 0  1.66 0.06 0  1.68 0.06 0  1.7 0.06 0  1.72 0.06 0  1.74 0.06 0  1.76 0.06 0  1.78 0.06 0  1.8 0.06 0  1.82 0.06 0  1.84 0.06 0  1.86 0.06 0  1.88 0.06 0  1.9 0.06 0  1.92 0.06 0  1.94 0.06 0  1.96 0.06 0  1.98 0.06 0  2 0.06 0  2.02 0.06 0  2.04 0.06 0  2.06 0.06 0  2.08 0.06 0  2.1 0.06 0  2.12 0.06 0  2.14 0.06 0  2.16 0.06 0  2.18 0.06 0  2.2 0.06 0  2.22 0.06 0  2.24 0.06 0  2.26 0.06 0  2.28 0.06 0  2.3 0.06 0  2.32 0.06 0  2.34 0.06 0  2.36 0.06 0  2.38 0.06 0  2.4 0.06 0  2.42 0.06 0  2.44 0.06 0  2.46 0.06 0  2.48 0.06 0  2.5 0.06 0  2.52 0.06 0  2.54 0.06 0  2.56 0.06 0  2.58 0.06 0  2.6 0.06 0  2.62 0.06 0  2.64 0.06 0  2.66 0.06 0  2.68 0.06 0  2.7 0.06 0  2.72 0.06 0  2.74 0.06 0  2.76 0.06 0  2.78 0.06 0  2.8 0.06 0  2.82 0.06 0  2.84 0.06 0  2.86 0.06 0  2.88 0.06 0  2.9 0.06 0  2.92 0.06 0  2.94 0.06 0  2.96 0.06 0  2.98 0.06 0  3 0.06 0  3.02 0.06 0  3.04 0.06 0  3.06 0.06 0  3.08 0.06 0  3.1 0.06 0  3.12 0.06 0  3.14 0.06 0  3.16 0.06 0  3.18 0.06 0  3.2 0.06 0  3.22 0.06 0  3.24 0.06 0  3.26 0.06 0  3.28 0.06 0  3.3 0.06 0  3.32 0.06 0  3.34 0.06 0  3.36 0.06 0  3.38 0.06 0  3.4 0.06 0  3.42 0.06 0  3.44 0.06 0  3.46 0.06 0  3.48 0.06 0  3.5 0.06 0  3.52 0.06 0  3.54 0.06 0  3.56 0.06 0  3.58 0.06 0  3.6 0.06 0  3.62 0.06 0  3.64 0.06 0  3.66 0.06 0  3.68 0.06 0  3.7 0.06 0  3.72 0.06 0  3.74 0.06 0  3.76 0.06 0  3.78 0.06 0  3.8 0.06 0  3.82 0.06 0  3.84 0.06 0  3.86 0.06 0  3.88 0.06 0  3.9 0.06 0  3.92 0.06 0  3.94 0.06 0  3.96 0.06 0  3.98 0.06 0  4 0.06 0  0 0.08 0  0.02 0.08 0
[...]
<PointData  Scalars="f_1650"> 
<DataArray  type="Float64"  Name="f_1650"  format="ascii">6.9517031691874300e-07  7.3027490860779554e-03  1.1847508951535394e-02  1.5790544888738302e-02  1.9519936376901584e-02  2.3164941277797453e-02  2.6787126423829733e-02  3.0419660212539733e-02  3.4081406768617852e-02  3.7783582240697486e-02  4.1533162294220910e-02  4.5334712915069075e-02  4.9191412001196415e-02  5.3105634548952195e-02  5.7079293027270751e-02  6.1114036362189872e-02  6.5211365565022356e-02  6.9372699563685719e-02  7.3599411102719170e-02  7.7892844682412518e-02  8.2254323843049329e-02  8.6685152289042805e-02  9.1186611626000544e-02  9.5759957415984059e-02  1.0040641458797386e-01  1.0512717281998830e-01  1.0992338224420292e-01  1.1479614965981957e-01  1.1974653533469774e-01  1.2477555041332601e-01  1.2988415491113015e-01  1.3507325625409564e-01  1.4034370831218337e-01  1.4569631087111434e-01  1.5113180948724372e-01  1.5665089567275237e-01  1.6225420736220272e-01  1.6794232961592628e-01  1.7371579552031388e-01  1.7957508724959026e-01  1.8552063725792556e-01  1.9155282957469280e-01  1.9767200117925507e-01  2.0387844343490774e-01  2.1017240356445641e-01  2.1655408615245927e-01  2.2302365466138918e-01  2.2958123295092547e-01  2.3622690679129410e-01  2.4296072536305466e-01  2.4978270273702721e-01  2.5669281932916294e-01  2.6369102332612993e-01  2.7077723207822496e-01  2.7795133345692541e-01  2.8521318717503169e-01  2.9256262606786532e-01  2.9999945733444844e-01  3.0752346373797945e-01  3.1513440476523807e-01  3.2283201774485304e-01  3.3061601892457798e-01  3.3848610450793720e-01  3.4644195165076325e-01  3.5448321941827576e-01  3.6260954970348197e-01  3.7082056810775316e-01  3.7911588478450858e-01  3.8749509524700160e-01  3.9595778114123537e-01  4.0450351098506859e-01  4.1313184087459753e-01  4.2184231515890330e-01  4.3063446708426273e-01  4.3950781940891603e-01  4.4846188498948159e-01  4.5749616734008230e-01  4.6661016116525195e-01  4.7580335286764880e-01  4.8507522103159667e-01  4.9442523688344486e-01  5.0385286472971058e-01  5.1335756237393859e-01  5.2293878151319328e-01  5.3259596811506227e-01  5.4232856277601804e-01  5.5213600106196670e-01  5.6201771383177324e-01  5.7197312754452934e-01  5.8200166455128832e-01  5.9210274337199265e-01  6.0227577895824724e-01  6.1252018294261146e-01  6.2283536387501426e-01  6.3322072744690261e-01  6.4367567670368775e-01  6.5419961224603318e-01  6.6479193242051493e-01  6.7545203350013971e-01  6.8617930985521625e-01  6.9697315411501071e-01  7.0783295732063189e-01  7.1875810906956572e-01  7.2974799765223020e-01  7.4080201018095382e-01  7.5191953271169543e-01  7.6309995035889400e-01  7.7434264740371139e-01  7.8564700739602655e-01  7.9701241325043637e-01  8.0843824733655023e-01  8.1992389156383694e-01  8.3146872746127209e-01  8.4307213625201349e-01  8.5473349892332739e-01  8.6645219629197345e-01  8.7822760906523500e-01  8.9005911789779191e-01  9.0194610344458681e-01  9.1388794640986448e-01  9.2588402759250865e-01  9.3793372792784002e-01  9.5003642852597581e-01  9.6219151070687503e-01  9.7439835603217761e-01  9.8665634633391675e-01  9.9896486374019855e-01  1.0113232906979059e+00  1.0237310099924861e+00  1.0361874047648763e+00  1.0486918585255953e+00  1.0612437551660132e+00  1.0738424789668297e+00  1.0864874146037387e+00  1.0991779471502776e+00  1.1119134620778306e+00  1.1246933452527506e+00  1.1375169829305396e+00  1.1503837617470625e+00  1.1632930687066947e+00  1.1762442911673563e+00  1.1892368168223588e+00  1.2022700336789938e+00  1.2153433300338112e+00  1.2284560944445395e+00  1.2416077156986254e+00  1.2547975827784268e+00  1.2680250848231125e+00  1.2812896110874146e+00  1.2945905508974589e+00  1.3079272936040203e+00  1.3212992285337035e+00  1.3347057449387199e+00  1.3481462319462003e+00  1.3616200785082515e+00  1.3751266733543601e+00  1.3886654049481317e+00  1.4022356614510010e+00  1.4158368306961231e+00  1.4294683001765156e+00  1.4431294570524777e+00  1.4568196881844981e+00  1.4705383801992760e+00  1.4842849195981671e+00  1.4980586929194302e+00  1.5118590869680297e+00  1.5256854891297500e+00  1.5395372877897815e+00  1.5534138728801952e+00  1.5673146365857176e+00  1.5812389742432775e+00  1.5951862854780829e+00  1.6091559756278986e+00  1.6231474575179057e+00  1.6371601536617750e+00  1.6511934989809143e+00  1.6652469441540583e+00  1.6793199597348649e+00  1.6934120412074196e+00  1.7075227151908321e+00  1.7216515470579123e+00  1.7357981503034121e+00  1.7499621980917788e+00  1.7641434375424925e+00  1.7783417074881063e+00  1.7925569606898533e+00  1.8067892918549890e+00  1.8210389733302246e+00  1.8353065011483269e+00  1.8495926553578861e+00  1.8638985805903132e+00  1.8782258962206517e+00  1.8925768514725969e+00  1.9069545519821596e+00  1.9213633065844005e+00  1.9358091912776625e+00  1.9503010430947321e+00  1.9648524191267775e+00  1.9794862581564090e+00  1.9942513337489338e+00  2.0093312499594385e+00  4.6446268946151530e-07  4.4626966897628921e-03  9.0550292871059996e-03  1.3221886248282423e-02  1.7087096302859109e-02  2.0796164901052294e-02  2.4431331388451674e-02  2.8039818059139951e-02  3.1650412574913495e-02  3.5281580695772363e-02  3.8945724047380441e-02  4.2651551946493366e-02  4.6405457056005163e-02  5.0212338308187110e-02  5.4076105650813458e-02  5.7999996062873878e-02  6.1986774832241284e-02  6.6038865660371343e-02  7.0158435887231502e-02  7.4347453035697939e-02  7.8607722827580995e-02  8.2940915123818390e-02  8.7348581937371342e-02  9.1832170210926795e-02  9.6393031119336420e-02  1.0103242705395395e-01  1.0575153705303429e-01  1.1055146118443585e-01  1.1543322421675269e-01  1.2039777880238536e-01  1.2544600832132261e-01  1.3057872948472737e-01  1.3579669476437664e-01  1.4110059469201783e-01  1.4649106005807075e-01  1.5196866402937159e-01  1.5753392419916801e-01  1.6318730457825067e-01  1.6892921753321541e-01  1.7476002567590343e-01  1.8068004370675508e-01  1.8668954021391126e-01  1.9278873942928798e-01  1.9897782294241095e-01  2.0525693137251005e-01  2.1162616599916001e-01  2.1808559035162040e-01  2.2463523175693056e-01  2.3127508284677123e-01  2.3800510302307104e-01  2.4482521988234959e-01  2.5173533059879660e-01  2.5873530326613076e-01  2.6582497819831852e-01  2.7300416918930326e-01  2.8027266473194090e-01  2.8763022919641529e-01  2.9507660396847296e-01  3.0261150854788249e-01  3.1023464160759295e-01  3.1794568201413548e-01  3.2574428980987002e-01  3.3363010715773728e-01  3.4160275924923272e-01  3.4966185517636905e-01  3.5780698876842959e-01  3.6603773939436496e-01  3.7435367273169928e-01  3.8275434150286541e-01  3.9123928617987841e-01  3.9980803565829959e-01  4.0846010790144022e-01  4.1719501055576269e-01  4.2601224153844353e-01  4.3491128959805814e-01  4.4389163484933403e-01  4.5295274928293794e-01  4.6209409725120743e-01  4.7131513593076907e-01  4.8061531576293542e-01  4.8999408087277202e-01  4.9945086946770284e-01  5.0898511421649750e-01  5.1859624260946335e-01  5.2828367730064707e-01  5.3804683643281659e-01  5.4788513394597893e-01  5.5779797987016067e-01  5.6778478060315030e-01  5.7784493917388580e-01  5.8797785549213066e-01  5.9818292658507555e-01  6.0845954682146219e-01  6.1880710812380701e-01  6.2922500016928873e-01  6.3971261057981910e-01  6.5026932510181679e-01  6.6089452777616386e-01  6.7158760109881799e-01  6.8234792617251283e-01  6.9317488284998596e-01  7.0406784986912541e-01  7.1502620498043012e-01  7.2604932506714082e-01  7.3713658625840484e-01  7.4828736403578933e-01  7.5950103333348007e-01  7.7077696863243905e-01  7.8211454404883241e-01  7.9351313341697549e-01  8.0497211036706595e-01  8.1649084839793507e-01  8.2806872094505490e-01  8.3970510144400379e-01  8.5139936338960998e-01  8.6315088039094234e-01  8.7495902622234623e-01  8.8682317487067985e-01  8.9874270057890360e-01  9.1071697788618033e-01  9.2274538166460729e-01  9.3482728715269814e-01  9.4696206998574128e-01  9.5914910622312433e-01  9.7138777237270768e-01  9.8367744541233926e-01  9.9601750280855872e-01  1.0084073225325703e+00  1.0208462830734919e+00  1.0333337634489452e+00  1.0458691432129863e+00  1.0584518024613794e+00  1.0710811218342222e+00  1.0837564825158883e+00  1.0964772662322588e+00  1.1092428552451949e+00  1.1220526323442002e+00  1.1349059808351949e+00  1.1478022845263209e+00  1.1607409277106966e+00  1.1737212951460225e+00  1.1867427720309272e+00  1.1998047439779778e+00  1.2129065969832471e+00  1.2260477173923636e+00  1.2392274918629853e+00  1.2524453073237003e+00  1.2657005509293584e+00  1.2789926100129487e+00  1.2923208720342025e+00  1.3056847245252523e+00  1.3190835550337761e+00  1.3325167510643090e+00  1.3459837000186230e+00  1.3594837891363509e+00  1.3730164054374803e+00  1.3865809356687269e+00  1.4001767662564371e+00  1.4138032832693082e+00  1.4274598723951020e+00  1.4411459189365192e+00  1.4548608078326539e+00  1.4686039237139210e+00  1.4823746510001288e+00  1.4961723740535526e+00  1.5099964774013530e+00  1.5238463460448526e+00  1.5377213658768194e+00  1.5516209242323780e+00  1.5655444106044609e+00  1.5794912175612261e+00  1.5934607419105637e+00  1.6074523861663479e+00  1.6214655603826025e+00  1.6354996844359806e+00  1.6495541908544751e+00  1.6636285283123049e+00  1.6777221659384634e+00  1.6918345986216461e+00  1.7059653535395807e+00  1.7201139981999496e+00  1.7342801503583067e+00  1.7484634902836218e+00  1.7626637759857551e+00  1.7768808622192529e+00  1.7911147243618131e+00  1.8053654886780808e+00  1.8196334710926245e+00  1.8339192275334930e+00  1.8482236203861115e+00  1.8625479080122551e+00  1.8768938683983443e+00  1.8912639753305052e+00  1.9056616593365590e+00  1.9200917135771816e+00  1.9345609660651140e+00  1.9490794884025593e+00  1.9636630259637553e+00  1.9783385799865889e+00  1.9931564293602779e+00  2.0081778640013059e+00  3.4519403818539330e-07  3.4008809695517104e-03  7.2634917117010301e-03  1.1154883423281005e-02  1.4929893170380662e-02  1.8595194071615868e-02  2.2188711086713605e-02  2.5745157373033626e-02  2.9290979376416695e-02  3.2845659745641673e-02  3.6423638717327393e-02  4.0035831555007846e-02  4.3690693199232286e-02  4.7394940845455966e-02  5.1154041452658380e-02  5.4972542425832945e-02  5.8854298386639609e-02  6.2802628906624053e-02  6.6820430042656254e-02  7.0910254660787916e-02  7.5074371436319273e-02  7.9314809101166173e-02  8.3633390340796310e-02  8.8031758315729278e-02  9.2511397837047329e-02  9.7073652594785620e-02  1.0171973941479137e-01  1.0645076023364052e-01  1.1126771228658121e-01  1.1617149687001468e-01  1.2116292694764957e-01  1.2624273380481901e-01  1.3141157290958508e-01  1.3667002910618908e-01  1.4201862124208270e-01  1.4745780631152666e-01  1.5298798318468787e-01  1.5860949598011975e-01  1.6432263712961256e-01  1.7012765017708734e-01  1.7602473234711144e-01  1.8201403691344356e-01  1.8809567539360608e-01  1.9426971959168626e-01  2.0053620350829804e-01  2.0689512513380728e-01  2.1334644813847642e-01  2.1989010347109189e-01  2.2652599087581970e-01  2.3325398033549313e-01  2.4007391344822404e-01  2.4698560474310347e-01  2.5398884293983143e-01  2.6108339215631721e-01  2.6826899306764418e-01  2.7554536401925722e-01  2.8291220209677798e-01  2.9036918415450691e-01  2.9791596780437091e-01  3.0555219236685682e-01  3.1327747978527792e-01  3.2109143550459068e-01  3.2899364931586095e-01  3.3698369616740426e-01  3.4506113694356128e-01  3.5322551921202228e-01  3.6147637794059112e-01  3.6981323618424444e-01  3.7823560574334381e-01  3.8674298779383171e-01  3.9533487349024771e-01  4.0401074454238706e-01  4.1277007376642905e-01  4.2161232561135387e-01  4.3053695666145847e-01  4.3954341611578374e-01  4.4863114624525519e-01  4.5779958282833250e-01  4.6704815556595253e-01  4.7637628847653546e-01  4.8578340027182842e-01  4.9526890471432172e-01  5.0483221095697695e-01  5.1447272386598930e-01  5.2418984432727267e-01  5.3398296953736024e-01  5.4385149327938109e-01  5.5379480618475374e-01  5.6381229598122640e-01  5.7390334772786455e-01  5.8406734403757310e-01  5.9430366528771172e-01  6.0461168981935465e-01  6.1499079412570801e-01  6.2544035303019685e-01  6.3595973985469867e-01  6.4654832657838490e-01  6.5720548398762069e-01  6.6793058181734211e-01  6.7872298888431926e-01  6.8958207321268816e-01  7.0050720215213369e-01  7.1149774248905795e-01  7.2255306055109192e-01  7.3367252230525393e-01  7.4485549345006463e-01  7.5610133950191305e-01  7.6740942587594407e-01  7.7877911796172150e-01  7.9020978119393204e-01  8.0170078111833842e-01  8.1325148345322984e-01  8.2486125414655354e-01  8.3652945942893964e-01  8.4825546586279743e-01  8.6003864038765365e-01  8.7187835036190109e-01  8.8377396360110738e-01  8.9572484841300659e-01  9.0773037362933429e-01  9.1978990863459265e-01  9.3190282339187458e-01  9.4406848846583347e-01  9.5628627504288211e-01  9.6855555494871026e-01  9.8087570066316787e-01  9.9324608533257885e-01  1.0056660827795167e+00  1.0181350675100842e+00  1.0306524147186988e+00  1.0432175002904036e+00  1.0558297008006863e+00  1.0684883935127851e+00  1.0811929563724532e+00  1.0939427680001310e+00  1.1067372076804649e+00  1.1195756553490974e+00  1.1324574915766517e+00  1.1453820975498052e+00  1.1583488550493464e+00  1.1713571464251129e+00  1.1844063545676859e+00  1.1974958628767249e+00  1.2106250552258482e+00  1.2237933159239422e+00  1.2370000296728625e+00  1.2502445815214585e+00  1.2635263568159740e+00  1.2768447411468897e+00  1.2901991202924055e+00  1.3035888801588693e+00  1.3170134067186305e+00  1.3304720859459636e+00  1.3439643037520286e+00  1.3574894459200979e+00  1.3710468980426747e+00  1.3846360454626829e+00  1.3982562732214221e+00  1.4119069660167514e+00  1.4255875081758864e+00  1.4392972836481785e+00  1.4530356760246406e+00  1.4668020685924938e+00  1.4805958444348863e+00  1.4944163865882381e+00  1.5082630782723290e+00  1.5221353032115441e+00  1.5360324460695893e+00  1.5499538930246926e+00  1.5638990325179853e+00  1.5778672562146001e+00  1.5918579602253222e+00  1.6058705466467560e+00  1.6199044254903161e+00  1.6339590170856055e+00  1.6480337550626594e+00  1.6621280900411759e+00  1.6762414941847406e+00  1.6903734668162467e+00  1.7045235413398991e+00  1.7186912937797032e+00  1.7328763533297753e+00  1.7470784154268306e+00  1.7612972580126121e+00  1.7755327618731453e+00  1.7897849362525653e+00  1.8040539513895200e+00  1.8183401802908838e+00  1.8326442530691114e+00  1.8469671287455376e+00  1.8613101919480237e+00  1.8756753861052669e+00  1.8900654018529244e+00  1.9044839518355781e+00  1.9189361853138875e+00  1.9334293347060245e+00  1.9479737419050218e+00  1.9625843975922588e+00  1.9772823064401273e+00  1.9920893179863597e+00  2.0069905940192290e+00  3.2362120233117697e-07  2.8767324622848488e-03  6.1538048084963668e-03  9.6303285985676595e-03  1.3153363071064099e-02  1.6659458906982571e-02  2.0137170442042964e-02  2.3595255965785978e-02  2.7047866221824667e-02  3.0509109119237706e-02  3.3991441624848670e-02  3.7505431394278921e-02  4.1059946867398063e-02  4.4662439665449617e-02  4.8319209467409481e-02  5.2035623275379542e-02  5.5816288698219224e-02  5.9665188778932891e-02  6.3585786839679456e-02  6.7581108625922509e-02  7.1653807432934369e-02  7.5806216461932807e-02  8.0040391516003020e-02  8.4358146295379355e-02  8.8761081933946856e-02  9.3250611977300668e-02  9.7827983689625059e-02  1.0249429635520908e-01  1.0725051708345931e-01  1.1209749451431052e-01  1.1703597074021524e-01  1.2206659170177048e-01  1.2718991626990342e-01  1.3240642419377224e-01  1.3771652306706192e-01  1.4312055444402902e-01  1.4861879921904578e-01  1.5421148236856050e-01  1.5989877714166018e-01  1.6568080877435734e-01  1.7155765779303067e-01  1.7752936296389504e-01  1.8359592393783017e-01  1.8975730363321597e-01  1.9601343039353059e-01  2.0236419995127353e-01  2.0880947722522294e-01  2.1534909797404658e-01  2.2198287032581560e-01  2.2871057619996585e-01  2.3553197263564751e-01  2.4244679303818070e-01  2.4945474835342890e-01  2.5655552817827754e-01  2.6374880181404731e-01  2.7103421926850496e-01  2.7841141221118970e-01  2.8587999488595417e-01  2.9343956498397455e-01  3.0108970447992861e-01  3.0882998043360294e-01  3.1665994575883327e-01  3.2457913996139115e-01  3.3258708984719959e-01  3.4068331020208298e-01  3.4886730444411024e-01  3.5713856524948639e-01  3.6549657515285733e-01  3.7394080712283373e-01  3.8247072511349095e-01  3.9108578459257087e-01  3.9978543304707936e-01  4.0856911046696232e-01  4.1743624980752414e-01  4.2638627743125196e-01  4.3541861352968564e-01  4.4453267252598933e-01  4.5372786345885419e-01  4.6300359034836841e-01  4.7235925254448596e-01  4.8179424505870649e-01  4.9130795887958673e-01  5.0089978127268653e-01  5.1056909606554235e-01  5.2031528391825776e-01  5.3013772258027758e-01  5.4003578713391753e-01  5.5000885022518597e-01  5.6005628228244164e-01  5.7017745172340051e-01  5.8037172515100133e-01  5.9063846753861626e-01  6.0097704240508343e-01  6.1138681198001543e-01  6.2186713735983534e-01  6.3241737865494518e-01  6.4303689512846796e-01  6.5372504532692288e-01  6.6448118720324234e-01  6.7530467823246876e-01  6.8619487552049618e-01  6.9715113590617472e-01  7.0817281605710614e-01  7.1925927255942190e-01  7.3040986200184488e-01  7.4162394105429819e-01  7.5290086654131927e-01  7.6423999551055477e-01  7.7564068529652630e-01  7.8710229357992800e-01  7.9862417844265499e-01  8.1020569841874923e-01  8.2184621254147727e-01  8.3354508038668274e-01  8.4530166211261504e-01  8.5711531849635469e-01  8.6898541096701587e-01  8.8091130163582432e-01  8.9289235332322514e-01  9.0492792958311319e-01  9.1701739472430477e-01  9.2916011382933827e-01  9.4135545277068167e-01  9.5360277822443218e-01  9.6590145768156799e-01  9.7825085945678569e-01  9.9065035269500501e-01  1.0030993073755234e+00  1.0155970943138743e+00  1.0281430851613835e+00  1.0407366524024111e+00  1.0533771693492744e+00  1.0660640101348102e+00  1.0787965497025440e+00  1.0915741637943930e+00  1.1043962289358507e+00  1.1172621224185626e+00  1.1301712222802021e+00  1.1431229072815381e+00  1.1561165568805980e+00  1.1691515512037820e+00  1.1822272710138428e+00  1.1953430976745827e+00  1.2084984131121748e+00  1.2216925997730226e+00  1.2349250405780801e+00  1.2481951188736193e+00  1.2615022183784603e+00  1.2748457231278107e+00  1.2882250174138834e+00  1.3016394857236548e+00  1.3150885126742902e+00  1.3285714829469359e+00  1.3420877812199055e+00  1.3556367921025774e+00  1.3692179000717781e+00  1.3828304894128909e+00  1.3964739441686220e+00  1.4101476480990556e+00  1.4238509846576235e+00  1.4375833369886830e+00  1.4513440879538171e+00  1.4651326201955623e+00  1.4789483162492665e+00  1.4927905587161723e+00  1.5066587305136101e+00  1.5205522152216746e+00  1.5344703975498140e+00  1.5484126639517577e+00  1.5623784034231143e+00  1.5763670085232222e+00  1.5903778766715730e+00  1.6044104117797040e+00  1.6184640262925958e+00  1.6325381437295547e+00  1.6466322018345132e+00  1.6607456564705643e+00  1.6748779864248857e+00  1.6890286993302008e+00  1.7031973389603385e+00  1.7173834942244111e+00  1.7315868102723484e+00  1.7458070022423613e+00  1.7600438723402512e+00  1.7742973311592642e+00  1.7885674244537557e+00  1.8028543670100901e+00  1.8171585858743764e+00  1.8314807760900653e+00  1.8458219734053503e+00  1.8601836503235540e+00  1.8745678446250043e+00  1.8889773332267030e+00  1.9034158683953983e+00  1.9178884942189938e+00  1.9324019432604835e+00  1.9469650173960134e+00  1.9615884797989889e+00  1.9762827733290205e+00  1.9910493748796068e+00  2.0058635513135381e+00  3.1502632908244712e-07  2.5371892504210446e-03  5.3989342350509910e-03  8.4935852104270539e-03  1.1717121121580161e-02  1.4998682524530514e-02  1.8303334620794844e-02  2.1619547088430523e-02  2.4947960876725586e-02  2.8294616904634345e-02  3.1667472826905456e-02  3.5074764774823013e-02  3.8524298858839387e-02  4.2023186225295044e-02  4.5577780912467808e-02  4.9193705286750510e-02  5.2875909238522381e-02  5.6628738728796257e-02  6.0456003165071777e-02  6.4361037526259393e-02  6.8346758055458298e-02  7.2415711571802877e-02  7.6570118917129365e-02  8.0811913177424963e-02  8.5142773303445649e-02  8.9564153690885