<?xml version="1.0"?>
<VTKFile type="UnstructuredGrid"  version="0.1"  >
<UnstructuredGrid>
<Piece  NumberOfPoints="20251" NumberOfCells="40000">
<Points>
<DataArray  type="Float64"  NumberOfComponents="3"  format="ascii">0 0 0  0.02 0 0  0.04 0 0  0.06 0 0  0.08 0 0  0.1 0 0  0.12 0 0  0.14 0 0  0.16 0 0  0.18 0 0  0.2 0 0  0.22 0 0  0.24 0 0  0.26 0 0  0.28 0 0  0.3 0 0  0.32 0 0  0.34 0 0  0.36 0 0  0.38 0 0  0.4 0 0  0.42 0 0  0.44 0 0  0.46 0 0  0.48 0 0  0.5 0 0  0.52 0 0  0.54 0 0  0.5600000000000001 0 0  0.58 0 0  0.6 0 0  0.62 0 0  0.64 0 0  0.66 0 0  0.68 0 0  0.7 0 0  0.72 0 0  0.74 0 0  0.76 0 0  0.78 0 0  0.8 0 0  0.82 0 0  0.84 0 0  0.86 0 0  0.88 0 0  0.9 0 0  0.92 0 0  0.9399999999999999 0 0  0.96 0 0  0.98 0 0  1 0 0  1.02 0 0  1.04 0 0  1.06 0 0  1.08 0 0  1.1 0 0  1.12 0 0  1.14 0 0  1.16 0 0  1.18 0 0  1.2 0 0  1.22 0 0  1.24 0 0  1.26 0 0  1.28 0 0  1.3 0 0  1.32 0 0  1.34 0 0  1.36 0 0  1.38 0 0  1.4 0 0  1.42 0 0  1.44 0 0  1.46 0 0  1.48 0 0  1.5 0 0  1.52 0 0  1.54 0 0  1.56 0 0  1.58 0 0  1.6 0 0  1.62 0 0  1.64 0 0  1.66 0 0  1.68 0 0  1.7 0 0  1.72 0 0  1.74 0 0  1.76 0 0  1.78 0 0  1.8 0 0  1.82 0 0  1.84 0 0  1.86 0 0  1.88 0 0  1.9 0 0  1.92 0 0  1.94 0 0  1.96 0 0  1.98 0 0  2 0 0  2.02 0 0  2.04 0 0  2.06 0 0  2.08 0 0  2.1 0 0  2.12 0 0  2.14 0 0  2.16 0 0  2.18 0 0  2.2 0 0  2.22 0 0  2.24 0 0  2.26 0 0  2.28 0 0  2.3 0 0  2.32 0 0  2.34 0 0  2.36 0 0  2.38 0 0  2.4 0 0  2.42 0 0  2.44 0 0  2.46 0 0  2.48 0 0  2.5 0 0  2.52 0 0  2.54 0 0  2.56 0 0  2.58 0 0  2.6 0 0  2.62 0 0  2.64 0 0  2.66 0 0  2.68 0 0  2.7 0 0  2.72 0 0  2.74 0 0  2.76 0 0  2.78 0 0  2.8 0 0  2.82 0 0  2.84 0 0  2.86 0 0  2.88 0 0  2.9 0 0  2.92 0 0  2.94 0 0  2.96 0 0  2.98 0 0  3 0 0  3.02 0 0  3.04 0 0  3.06 0 0  3.08 0 0  3.1 0 0  3.12 0 0  3.14 0 0  3.16 0 0  3.18 0 0  3.2 0 0  3.22 0 0  3.24 0 0  3.26 0 0  3.28 0 0  3.3 0 0  3.32 0 0  3.34 0 0  3.36 0 0  3.38 0 0  3.4 0 0  3.42 0 0  3.44 0 0  3.46 0 0  3.48 0 0  3.5 0 0  3.52 0 0  3.54 0 0  3.56 0 0  3.58 0 0  3.6 0 0  3.62 0 0  3.64 0 0  3.66 0 0  3.68 0 0  3.7 0 0  3.72 0 0  3.74 0 0  3.76 0 0  3.78 0 0  3.8 0 0  3.82 0 0  3.84 0 0  3.86 0 0  3.88 0 0  3.9 0 0  3.92 0 0  3.94 0 0  3.96 0 0  3.98 0 0  4 0 0  0 0.02 0  0.02 0.02 0  0.04 0.02 0  0.06 0.02 0  0.08 0.02 0  0.1 0.02 0  0.12 0.02 0  0.14 0.02 0  0.16 0.02 0  0.18 0.02 0  0.2 0.02 0  0.22 0.02 0  0.24 0.02 0  0.26 0.02 0  0.28 0.02 0  0.3 0.02 0  0.32 0.02 0  0.34 0.02 0  0.36 0.02 0  0.38 0.02 0  0.4 0.02 0  0.42 0.02 0  0.44 0.02 0  0.46 0.02 0  0.48 0.02 0  0.5 0.02 0  0.52 0.02 0  0.54 0.02 0  0.5600000000000001 0.02 0  0.58 0.02 0  0.6 0.02 0  0.62 0.02 0  0.64 0.02 0  0.66 0.02 0  0.68 0.02 0  0.7 0.02 0  0.72 0.02 0  0.74 0.02 0  0.76 0.02 0  0.78 0.02 0  0.8 0.02 0  0.82 0.02 0  0.84 0.02 0  0.86 0.02 0  0.88 0.02 0  0.9 0.02 0  0.92 0.02 0  0.9399999999999999 0.02 0  0.96 0.02 0  0.98 0.02 0  1 0.02 0  1.02 0.02 0  1.04 0.02 0  1.06 0.02 0  1.08 0.02 0  1.1 0.02 0  1.12 0.02 0  1.14 0.02 0  1.16 0.02 0  1.18 0.02 0  1.2 0.02 0  1.22 0.02 0  1.24 0.02 0  1.26 0.02 0  1.28 0.02 0  1.3 0.02 0  1.32 0.02 0  1.34 0.02 0  1.36 0.02 0  1.38 0.02 0  1.4 0.02 0  1.42 0.02 0  1.44 0.02 0  1.46 0.02 0  1.48 0.02 0  1.5 0.02 0  1.52 0.02 0  1.54 0.02 0  1.56 0.02 0  1.58 0.02 0  1.6 0.02 0  1.62 0.02 0  1.64 0.02 0  1.66 0.02 0  1.68 0.02 0  1.7 0.02 0  1.72 0.02 0  1.74 0.02 0  1.76 0.02 0  1.78 0.02 0  1.8 0.02 0  1.82 0.02 0  1.84 0.02 0  1.86 0.02 0  1.88 0.02 0  1.9 0.02 0  1.92 0.02 0  1.94 0.02 0  1.96 0.02 0  1.98 0.02 0  2 0.02 0  2.02 0.02 0  2.04 0.02 0  2.06 0.02 0  2.08 0.02 0  2.1 0.02 0  2.12 0.02 0  2.14 0.02 0  2.16 0.02 0  2.18 0.02 0  2.2 0.02 0  2.22 0.02 0  2.24 0.02 0  2.26 0.02 0  2.28 0.02 0  2.3 0.02 0  2.32 0.02 0  2.34 0.02 0  2.36 0.02 0  2.38 0.02 0  2.4 0.02 0  2.42 0.02 0  2.44 0.02 0  2.46 0.02 0  2.48 0.02 0  2.5 0.02 0  2.52 0.02 0  2.54 0.02 0  2.56 0.02 0  2.58 0.02 0  2.6 0.02 0  2.62 0.02 0  2.64 0.02 0  2.66 0.02 0  2.68 0.02 0  2.7 0.02 0  2.72 0.02 0  2.74 0.02 0  2.76 0.02 0  2.78 0.02 0  2.8 0.02 0  2.82 0.02 0  2.84 0.02 0  2.86 0.02 0  2.88 0.02 0  2.9 0.02 0  2.92 0.02 0  2.94 0.02 0  2.96 0.02 0  2.98 0.02 0  3 0.02 0  3.02 0.02 0  3.04 0.02 0  3.06 0.02 0  3.08 0.02 0  3.1 0.02 0  3.12 0.02 0  3.14 0.02 0  3.16 0.02 0  3.18 0.02 0  3.2 0.02 0  3.22 0.02 0  3.24 0.02 0  3.26 0.02 0  3.28 0.02 0  3.3 0.02 0  3.32 0.02 0  3.34 0.02 0  3.36 0.02 0  3.38 0.02 0  3.4 0.02 0  3.42 0.02 0  3.44 0.02 0  3.46 0.02 0  3.48 0.02 0  3.5 0.02 0  3.52 0.02 0  3.54 0.02 0  3.56 0.02 0  3.58 0.02 0  3.6 0.02 0  3.62 0.02 0  3.64 0.02 0  3.66 0.02 0  3.68 0.02 0  3.7 0.02 0  3.72 0.02 0  3.74 0.02 0  3.76 0.02 0  3.78 0.02 0  3.8 0.02 0  3.82 0.02 0  3.84 0.02 0  3.86 0.02 0  3.88 0.02 0  3.9 0.02 0  3.92 0.02 0  3.94 0.02 0  3.96 0.02 0  3.98 0.02 0  4 0.02 0  0 0.04 0  0.02 0.04 0  0.04 0.04 0  0.06 0.04 0  0.08 0.04 0  0.1 0.04 0  0.12 0.04 0  0.14 0.04 0  0.16 0.04 0  0.18 0.04 0  0.2 0.04 0  0.22 0.04 0  0.24 0.04 0  0.26 0.04 0  0.28 0.04 0  0.3 0.04 0  0.32 0.04 0  0.34 0.04 0  0.36 0.04 0  0.38 0.04 0  0.4 0.04 0  0.42 0.04 0  0.44 0.04 0  0.46 0.04 0  0.48 0.04 0  0.5 0.04 0  0.52 0.04 0  0.54 0.04 0  0.5600000000000001 0.04 0  0.58 0.04 0  0.6 0.04 0  0.62 0.04 0  0.64 0.04 0  0.66 0.04 0  0.68 0.04 0  0.7 0.04 0  0.72 0.04 0  0.74 0.04 0  0.76 0.04 0  0.78 0.04 0  0.8 0.04 0  0.82 0.04 0  0.84 0.04 0  0.86 0.04 0  0.88 0.04 0  0.9 0.04 0  0.92 0.04 0  0.9399999999999999 0.04 0  0.96 0.04 0  0.98 0.04 0  1 0.04 0  1.02 0.04 0  1.04 0.04 0  1.06 0.04 0  1.08 0.04 0  1.1 0.04 0  1.12 0.04 0  1.14 0.04 0  1.16 0.04 0  1.18 0.04 0  1.2 0.04 0  1.22 0.04 0  1.24 0.04 0  1.26 0.04 0  1.28 0.04 0  1.3 0.04 0  1.32 0.04 0  1.34 0.04 0  1.36 0.04 0  1.38 0.04 0  1.4 0.04 0  1.42 0.04 0  1.44 0.04 0  1.46 0.04 0  1.48 0.04 0  1.5 0.04 0  1.52 0.04 0  1.54 0.04 0  1.56 0.04 0  1.58 0.04 0  1.6 0.04 0  1.62 0.04 0  1.64 0.04 0  1.66 0.04 0  1.68 0.04 0  1.7 0.04 0  1.72 0.04 0  1.74 0.04 0  1.76 0.04 0  1.78 0.04 0  1.8 0.04 0  1.82 0.04 0  1.84 0.04 0  1.86 0.04 0  1.88 0.04 0  1.9 0.04 0  1.92 0.04 0  1.94 0.04 0  1.96 0.04 0  1.98 0.04 0  2 0.04 0  2.02 0.04 0  2.04 0.04 0  2.06 0.04 0  2.08 0.04 0  2.1 0.04 0  2.12 0.04 0  2.14 0.04 0  2.16 0.04 0  2.18 0.04 0  2.2 0.04 0  2.22 0.04 0  2.24 0.04 0  2.26 0.04 0  2.28 0.04 0  2.3 0.04 0  2.32 0.04 0  2.34 0.04 0  2.36 0.04 0  2.38 0.04 0  2.4 0.04 0  2.42 0.04 0  2.44 0.04 0  2.46 0.04 0  2.48 0.04 0  2.5 0.04 0  2.52 0.04 0  2.54 0.04 0  2.56 0.04 0  2.58 0.04 0  2.6 0.04 0  2.62 0.04 0  2.64 0.04 0  2.66 0.04 0  2.68 0.04 0  2.7 0.04 0  2.72 0.04 0  2.74 0.04 0  2.76 0.04 0  2.78 0.04 0  2.8 0.04 0  2.82 0.04 0  2.84 0.04 0  2.86 0.04 0  2.88 0.04 0  2.9 0.04 0  2.92 0.04 0  2.94 0.04 0  2.96 0.04 0  2.98 0.04 0  3 0.04 0  3.02 0.04 0  3.04 0.04 0  3.06 0.04 0  3.08 0.04 0  3.1 0.04 0  3.12 0.04 0  3.14 0.04 0  3.16 0.04 0  3.18 0.04 0  3.2 0.04 0  3.22 0.04 0  3.24 0.04 0  3.26 0.04 0  3.28 0.04 0  3.3 0.04 0  3.32 0.04 0  3.34 0.04 0  3.36 0.04 0  3.38 0.04 0  3.4 0.04 0  3.42 0.04 0  3.44 0.04 0  3.46 0.04 0  3.48 0.04 0  3.5 0.04 0  3.52 0.04 0  3.54 0.04 0  3.56 0.04 0  3.58 0.04 0  3.6 0.04 0  3.62 0.04 0  3.64 0.04 0  3.66 0.04 0  3.68 0.04 0  3.7 0.04 0  3.72 0.04 0  3.74 0.04 0  3.76 0.04 0  3.78 0.04 0  3.8 0.04 0  3.82 0.04 0  3.84 0.04 0  3.86 0.04 0  3.88 0.04 0  3.9 0.04 0  3.92 0.04 0  3.94 0.04 0  3.96 0.04 0  3.98 0.04 0  4 0.04 0  0 0.06 0  0.02 0.06 0  0.04 0.06 0  0.06 0.06 0  0.08 0.06 0  0.1 0.06 0  0.12 0.06 0  0.14 0.06 0  0.16 0.06 0  0.18 0.06 0  0.2 0.06 0  0.22 0.06 0  0.24 0.06 0  0.26 0.06 0  0.28 0.06 0  0.3 0.06 0  0.32 0.06 0  0.34 0.06 0  0.36 0.06 0  0.38 0.06 0  0.4 0.06 0  0.42 0.06 0  0.44 0.06 0  0.46 0.06 0  0.48 0.06 0  0.5 0.06 0  0.52 0.06 0  0.54 0.06 0  0.5600000000000001 0.06 0  0.58 0.06 0  0.6 0.06 0  0.62 0.06 0  0.64 0.06 0  0.66 0.06 0  0.68 0.06 0  0.7 0.06 0  0.72 0.06 0  0.74 0.06 0  0.76 0.06 0  0.78 0.06 0  0.8 0.06 0  0.82 0.06 0  0.84 0.06 0  0.86 0.06 0  0.88 0.06 0  0.9 0.06 0  0.92 0.06 0  0.9399999999999999 0.06 0  0.96 0.06 0  0.98 0.06 0  1 0.06 0  1.02 0.06 0  1.04 0.06 0  1.06 0.06 0  1.08 0.06 0  1.1 0.06 0  1.12 0.06 0  1.14 0.06 0  1.16 0.06 0  1.18 0.06 0  1.2 0.06 0  1.22 0.06 0  1.24 0.06 0  1.26 0.06 0  1.28 0.06 0  1.3 0.06 0  1.32 0.06 0  1.34 0.06 0  1.36 0.06 0  1.38 0.06 0  1.4 0.06 0  1.42 0.06 0  1.44 0.06 0  1.46 0.06 0  1.48 0.06 0  1.5 0.06 0  1.52 0.06 0  1.54 0.06 0  1.56 0.06 0  1.58 0.06 0  1.6 0.06 0  1.62 0.06 0  1.64 0.06 0  1.66 0.06 0  1.68 0.06 0  1.7 0.06 0  1.72 0.06 0  1.74 0.06 0  1.76 0.06 0  1.78 0.06 0  1.8 0.06 0  1.82 0.06 0  1.84 0.06 0  1.86 0.06 0  1.88 0.06 0  1.9 0.06 0  1.92 0.06 0  1.94 0.06 0  1.96 0.06 0  1.98 0.06 0  2 0.06 0  2.02 0.06 0  2.04 0.06 0  2.06 0.06 0  2.08 0.06 0  2.1 0.06 0  2.12 0.06 0  2.14 0.06 0  2.16 0.06 0  2.18 0.06 0  2.2 0.06 0  2.22 0.06 0  2.24 0.06 0  2.26 0.06 0  2.28 0.06 0  2.3 0.06 0  2.32 0.06 0  2.34 0.06 0  2.36 0.06 0  2.38 0.06 0  2.4 0.06 0  2.42 0.06 0  2.44 0.06 0  2.46 0.06 0  2.48 0.06 0  2.5 0.06 0  2.52 0.06 0  2.54 0.06 0  2.56 0.06 0  2.58 0.06 0  2.6 0.06 0  2.62 0.06 0  2.64 0.06 0  2.66 0.06 0  2.68 0.06 0  2.7 0.06 0  2.72 0.06 0  2.74 0.06 0  2.76 0.06 0  2.78 0.06 0  2.8 0.06 0  2.82 0.06 0  2.84 0.06 0  2.86 0.06 0  2.88 0.06 0  2.9 0.06 0  2.92 0.06 0  2.94 0.06 0  2.96 0.06 0  2.98 0.06 0  3 0.06 0  3.02 0.06 0  3.04 0.06 0  3.06 0.06 0  3.08 0.06 0  3.1 0.06 0  3.12 0.06 0  3.14 0.06 0  3.16 0.06 0  3.18 0.06 0  3.2 0.06 0  3.22 0.06 0  3.24 0.06 0  3.26 0.06 0  3.28 0.06 0  3.3 0.06 0  3.32 0.06 0  3.34 0.06 0  3.36 0.06 0  3.38 0.06 0  3.4 0.06 0  3.42 0.06 0  3.44 0.06 0  3.46 0.06 0  3.48 0.06 0  3.5 0.06 0  3.52 0.06 0  3.54 0.06 0  3.56 0.06 0  3.58 0.06 0  3.6 0.06 0  3.62 0.06 0  3.64 0.06 0  3.66 0.06 0  3.68 0.06 0  3.7 0.06 0  3.72 0.06 0  3.74 0.06 0  3.76 0.06 0  3.78 0.06 0  3.8 0.06 0  3.82 0.06 0  3.84 0.06 0  3.86 0.06 0  3.88 0.06 0  3.9 0.06 0  3.92 0.06 0  3.94 0.06 0  3.96 0.06 0  3.98 0.06 0  4 0.06 0  0 0.08 0  0.02 0.08 0
[...]
<PointData  Scalars="f_1620"> 
<DataArray  type="Float64"  Name="f_1620"  format="ascii">3.8213735147145110e+02  1.3755922106095301e+02  1.2392956122718334e+02  1.1761124319760286e+02  1.1529926175459033e+02  1.1457159558913968e+02  1.1450430757207499e+02  1.1469212791266538e+02  1.1494157335623777e+02  1.1515643394368358e+02  1.1528878783247472e+02  1.1531632961849520e+02  1.1523099889402444e+02  1.1503286176058712e+02  1.1472663248588957e+02  1.1431961159383278e+02  1.1382042553599008e+02  1.1323824060605962e+02  1.1258226811114326e+02  1.1186145408355230e+02  1.1108428892184629e+02  1.1025869651101347e+02  1.0939197672849473e+02  1.0849078405086290e+02  1.0756113054364342e+02  1.0660840513511940e+02  1.0563740348893386e+02  1.0465236443981080e+02  1.0365701010851619e+02  1.0265458763247737e+02  1.0164791104184900e+02  1.0063940224598505e+02  9.9631130417452425e+01  9.8624849300803760e+01  9.7622032152654143e+01  9.6623904153423624e+01  9.5631472230520416e+01  9.4645552305542594e+01  9.3666794030826679e+01  9.2695703117689490e+01  9.1732661383530854e+01  9.0777944660759772e+01  8.9831738718999773e+01  8.8894153355164960e+01  8.7965234805313273e+01  8.7044976628128040e+01  8.6133329204274148e+01  8.5230207988228415e+01  8.4335500641122593e+01  8.3449073164274338e+01  8.2570775143943223e+01  8.1700444209094286e+01  8.0837909794937474e+01  7.9982996296632521e+01  7.9135525689489711e+01  7.8295319684327524e+01  7.7462201479629741e+01  7.6635997165485549e+01  7.5816536828243301e+01  7.5003655399311256e+01  7.4197193286320001e+01  7.3396996820483579e+01  7.2602918549558808e+01  7.1814817402392507e+01  7.1032558747346570e+01  7.0256014364244734e+01  6.9485062346442675e+01  6.8719586947715129e+01  6.7959478386056659e+01  6.7204632615160378e+01  6.6454951072227601e+01  6.5710340409778368e+01  6.4970712217631572e+01  6.4235982740203582e+01  6.3506072593416000e+01  6.2780906484644554e+01  6.2060412938374121e+01  6.1344524029848280e+01  6.0633175128297189e+01  5.9926304650902388e+01  5.9223853828499664e+01  5.8525766483502331e+01  5.7831988820340356e+01  5.7142469228579074e+01  5.6457158098655427e+01  5.5776007649982795e+01  5.5098971771162034e+01  5.4426005871892073e+01  5.3757066746201389e+01  5.3092112446331285e+01  5.2431102167001185e+01  5.1773996139238832e+01  5.1120755533427456e+01  5.0471342370873231e+01  4.9825719443454446e+01  4.9183850240746068e+01  4.8545698884011962e+01  4.7911230066785450e+01  4.7280409001285058e+01  4.6653201370429912e+01  4.6029573284760879e+01  4.5409491244188530e+01  4.4792922103773904e+01  4.4179833043482887e+01  4.3570191541473974e+01  4.2963965350524653e+01  4.2361122477359459e+01  4.1761631164654979e+01  4.1165459875357655e+01  4.0572577279142990e+01  3.9982952240800664e+01  3.9396553810409969e+01  3.8813351214921255e+01  3.8233313851337066e+01  3.7656411280977736e+01  3.7082613225042046e+01  3.6511889561091500e+01  3.5944210320636572e+01  3.5379545687511147e+01  3.4817865997223564e+01  3.4259141737043635e+01  3.3703343547035843e+01  3.3150442221910922e+01  3.2600408713801805e+01  3.2053214136043820e+01  3.1508829768089491e+01  3.0967227061581966e+01  3.0428377648024554e+01  2.9892253347971650e+01  2.9358826182226057e+01  2.8828068385355788e+01  2.8299952421871655e+01  2.7774451005552734e+01  2.7251537122644880e+01  2.6731184059389612e+01  2.6213365434745185e+01  2.5698055239311170e+01  2.5185227881451723e+01  2.4674858241692046e+01  2.4166921737177276e+01  2.3661394397317558e+01  2.3158252953080051e+01  2.2657474941382684e+01  2.2159038827696492e+01  2.1662924149106466e+01  2.1169111681153183e+01  2.0677583632038111e+01  2.0188323868079586e+01  1.9701318174799251e+01  1.9216554558908442e+01  1.8734023596295231e+01  1.8253718832636608e+01  1.7775637243015908e+01  1.7299779758481662e+01  1.6826151867341309e+01  1.6354764300367286e+01  1.5885633809693795e+01  1.5418784051831382e+01  1.4954246585905278e+01  1.4492061999580375e+01  1.4032281175022119e+01  1.3574966708460405e+01  1.3120194497296076e+01  1.2668055509183455e+01  1.2218657747765862e+01  1.1772128430014655e+01  1.1328616389435314e+01  1.0888294719898472e+01  1.0451363673330606e+01  1.0018053823141207e+01  9.5886295046682051e+00  9.1633925401240148e+00  8.7426862535294205e+00  8.3268997767570205e+00  7.9164726425729457e+00  7.5118996541377392e+00  7.1137360117711612e+00  6.7226026668383323e+00  6.3391918572777861e+00  5.9642727602312409e+00  5.5986971692823913e+00  5.2434050660477931e+00  4.8994299019637904e+00  4.5679033276000043e+00  4.2500589917155711e+00  3.9472348600678919e+00  3.6608732414338139e+00  3.3925173037049539e+00  3.1438022284700282e+00  2.9164381560370907e+00  2.7121805478977374e+00  2.5327810428677862e+00  2.3799033194643218e+00  2.2549499642139783e+00  2.1587042823639671e+00  2.0913302247870060e+00  2.0570503073313962e+00  2.0602026353062297e+00  2.1007742167241314e+00  1.7378430754871579e+00  3.0466087136748934e+00  1.2996721339707366e+02  1.4967174835712930e+02  1.3863840430334866e+02  1.2633928213730577e+02  1.1951608795731536e+02  1.1568416773841624e+02  1.1341052199070332e+02  1.1198938837999110e+02  1.1104595626458193e+02  1.1036725849204146e+02  1.0982724997082896e+02  1.0934958158879105e+02  1.0888761826453749e+02  1.0841311210902673e+02  1.0790948960660938e+02  1.0736772071916985e+02  1.0678369524128047e+02  1.0615651243647764e+02  1.0548734249005915e+02  1.0477865644678427e+02  1.0403369966584374e+02  1.0325612975831969e+02  1.0244976770436428e+02  1.0161842804989102e+02  1.0076580502371328e+02  9.9895398538736487e+01  9.9010468779878039e+01  9.8114011299790505e+01  9.7208746771513489e+01  9.6297121117281108e+01  9.5381312857481873e+01  9.4463245341589428e+01  9.3544602125171195e+01  9.2626844205747375e+01  9.1711228167512459e+01  9.0798824540233539e+01  8.9890535871824554e+01  8.8987114162333199e+01  8.8089177420036336e+01  8.7197225186538546e+01  8.6311652942880556e+01  8.5432765357910782e+01  8.4560788376319763e+01  8.3695880170543987e+01  8.2838140999393886e+01  8.1987622029395595e+01  8.1144333182849380e+01  8.0308250081490982e+01  7.9479320156643013e+01  7.8657467996588551e+01  7.7842600000555208e+01  7.7034608405943231e+01  7.6233374752219248e+01  7.5438772841039636e+01  7.4650671248001345e+01  7.3868935437416582e+01  7.3093429527008013e+01  7.2324017745555494e+01  7.1560565622378618e+01  7.0802940943768817e+01  7.0051014507992477e+01  6.9304660707032227e+01  6.8563757960212996e+01  6.7828189022001993e+01  6.7097841183646423e+01  6.6372606385977932e+01  6.5652381258428392e+01  6.4937067097709630e+01  6.4226569797286260e+01  6.3520799737949119e+01  6.2819671647659945e+01  6.2123104438268250e+01  6.1431021025109139e+01  6.0743348134849391e+01  6.0060016105932775e+01  5.9380958685360007e+01  5.8706112824797074e+01  5.8035418478483656e+01  5.7368818404972934e+01  5.6706257974258577e+01  5.6047684981482092e+01  5.5393049468241287e+01  5.4742303552054523e+01  5.4095401264457578e+01  5.3452298398036199e+01  5.2812952362516434e+01  5.2177322049795151e+01  5.1545367707932733e+01  5.0917050823896560e+01  5.0292334014660561e+01  4.9671180926588320e+01  4.9053556142564197e+01  4.8439425096610847e+01  4.7828753995597928e+01  4.7221509747636254e+01  4.6617659896742403e+01  4.6017172563411513e+01  4.5420016390772290e+01  4.4826160495770210e+01  4.4235574425258307e+01  4.3648228116345436e+01  4.3064091861029105e+01  4.2483136274392947e+01  4.1905332266427628e+01  4.1330651016938205e+01  4.0759063953378764e+01  4.0190542731352679e+01  3.9625059217526207e+01  3.9062585474763985e+01  3.8503093749242225e+01  3.7946556459462158e+01  3.7392946186802860e+01  3.6842235667745683e+01  3.6294397787317450e+01  3.5749405573960949e+01  3.5207232195441080e+01  3.4667850955912762e+01  3.4131235294013237e+01  3.3597358781851305e+01  3.3066195125059544e+01  3.2537718163615864e+01  3.2011901873793875e+01  3.1488720370894104e+01  3.0968147913162372e+01  3.0450158906666282e+01  2.9934727911543771e+01  2.9421829649475832e+01  2.8911439012766873e+01  2.8403531075201546e+01  2.7898081104870599e+01  2.7395064579396852e+01  2.6894457203892404e+01  2.6396234932058341e+01  2.5900373991033927e+01  2.5406850910495699e+01  2.4915642556893641e+01  2.4426726173383418e+01  2.3940079426677375e+01  2.3455680461670855e+01  2.2973507965220495e+01  2.2493541240442351e+01  2.2015760293094345e+01  2.1540145931859499e+01  2.1066679884714478e+01  2.0595344933450821e+01  2.0126125069146507e+01  1.9659005671333581e+01  1.9193973714065976e+01  1.8731018002651648e+01  1.8270129444555998e+01  1.7811301359211779e+01  1.7354529831116640e+01  1.6899814111469233e+01  1.6447157073674632e+01  1.5996565728746663e+01  1.5548051806785953e+01  1.5101632410830698e+01  1.4657330750260305e+01  1.4215176960283513e+01  1.3775209014693489e+01  1.3337473738605636e+01  1.2902027927587747e+01  1.2468939579145196e+01  1.2038289241127645e+01  1.1610171480807191e+01  1.1184696475818940e+01  1.0761991725826043e+01  1.0342203880231242e+01  9.9255006726964208e+00  9.5120729470346763e+00  9.1021367520001597e+00  8.6959354721002420e+00  8.2937419494900304e+00  7.8958605359055563e+00  7.5026289924320588e+00  7.1144201290112772e+00  6.7316430390159301e+00  6.3547437394278994e+00  5.9842049637016492e+00  5.6205447709181753e+00  5.2643135185550767e+00  4.9160885826554255e+00  4.5764659749928214e+00  4.2460476610586353e+00  3.9254228615339914e+00  3.6151408101022864e+00  3.3156711481823602e+00  3.0273460206211524e+00  2.7502743938343968e+00  2.4842131135572338e+00  2.2283692770950805e+00  1.9810937032953746e+00  1.7394032669555293e+00  1.4981686275167119e+00  1.2483009181428379e+00  9.7390756605490836e-01  6.6807477804086790e-01  5.5978256080233968e-01  1.3946428828677471e+00  3.7293633470261640e+00  7.7304849915209148e+00  8.8342165014470666e+01  1.1113357183055052e+02  1.2005492330836172e+02  1.1896683801702446e+02  1.1557637858982237e+02  1.1240621768289286e+02  1.0990357229448156e+02  1.0799224052547530e+02  1.0652066456816816e+02  1.0535656784109283e+02  1.0439984768722474e+02  1.0357823276528408e+02  1.0284058533544201e+02  1.0215115840053178e+02  1.0148526053819010e+02  1.0082611486297951e+02  1.0016260990376477e+02  9.9487689229499892e+01  9.8797192996785441e+01  9.8089019428510625e+01  9.7362514234249730e+01  9.6618023882646852e+01  9.5856567798470493e+01  9.5079597691919602e+01  9.4288821274653230e+01  9.3486073901242079e+01  9.2673226086325656e+01  9.1852117981198788e+01  9.1024514146486538e+01  9.0192073597500311e+01  8.9356331307190871e+01  8.8518688252149389e+01  8.7680407765566727e+01  8.6842616477302172e+01  8.6006308517135551e+01  8.5172351963587374e+01  8.4341496758438424e+01  8.3514383493151271e+01  8.2691552618691830e+01  8.1873453744594016e+01  8.1060454782378429e+01  8.0252850758640335e+01  7.9450872177596040e+01  7.8654692855367173e+01  7.7864437180763687e+01  7.7080186782252085e+01  7.6301986599379674e+01  7.5529850370703997e+01  7.4763765560099898e+01  7.4003697750108742e+01  7.3249594535367123e+01  7.2501388951755814e+01  7.1759002477947902e+01  7.1022347646157669e+01  7.0291330298047654e+01  6.9565851520541528e+01  6.8845809294468282e+01  6.8131099887038999e+01  6.7421619017032555e+01  6.6717262819271824e+01  6.6017928632955346e+01  6.5323515636016168e+01  6.4633925345753283e+01  6.3949062003977531e+01  6.3268832862870653e+01  6.2593148386334256e+01  6.1921922379535296e+01  6.1255072058355154e+01  6.0592518068644800e+01  5.9934184464224899e+01  5.9279998651333088e+01  5.8629891306247110e+01  5.7983796271832780e+01  5.7341650438069770e+01  5.6703393610781433e+01  5.6068968372156441e+01  5.5438319936205794e+01  5.4811396001660306e+01  5.4188146604352831e+01  5.3568523971056429e+01  5.2952482375867497e+01  5.2339978000557927e+01  5.1730968799568892e+01  5.1125414370396491e+01  5.0523275829876773e+01  4.9924515696589765e+01  4.9329097779709798e+01  4.8736987074397639e+01  4.8148149663546960e+01  4.7562552626125679e+01  4.6980163951707169e+01  4.6400952461216683e+01  4.5824887733570698e+01  4.5251940038041056e+01  4.4682080272033879e+01  4.4115279904080161e+01  4.3551510921716385e+01  4.2990745783979932e+01  4.2432957378264817e+01  4.1878118981288750e+01  4.1326204223800204e+01  4.0777187058845584e+01  4.0231041733380330e+01  3.9687742762904278e+01  3.9147264908912362e+01  3.8609583158972697e+01  3.8074672709212180e+01  3.7542508948996669e+01  3.7013067447706483e+01  3.6486323943362699e+01  3.5962254332937100e+01  3.5440834664368296e+01  3.4922041129908138e+01  3.4405850060998972e+01  3.3892237924273616e+01  3.3381181318846004e+01  3.2872656974687821e+01  3.2366641752131486e+01  3.1863112642334972e+01  3.1362046768861671e+01  3.0863421390239079e+01  3.0367213903571638e+01  2.9873401849262461e+01  2.9381962916832791e+01  2.8892874951980531e+01  2.8406115964993955e+01  2.7921664140643532e+01  2.7439497849618149e+01  2.6959595661950679e+01  2.6481936362371517e+01  2.6006498968176693e+01  2.5533262749731545e+01  2.5062207254061065e+01  2.4593312332077549e+01  2.4126558169771123e+01  2.3661925324254639e+01  2.3199394765000100e+01  2.2738947921374322e+01  2.2280566737059228e+01  2.1824233732785469e+01  2.1369932077876541e+01  2.0917645672632162e+01  2.0467359242194664e+01  2.0019058444165765e+01  1.9572729991241605e+01  1.9128361791047372e+01  1.8685943105157840e+01  1.8245464729718716e+01  1.7806919200135312e+01  1.7370301022424343e+01  1.6935606934405744e+01  1.6502836199424777e+01  1.6071990936047694e+01  1.5643076486888349e+01  1.5216101830107572e+01  1.4791080036575307e+01  1.4368028776050538e+01  1.3946970875549553e+01  1.3527934931779001e+01  1.3110955980201156e+01  1.2696076221286418e+01  1.2283345803904831e+01  1.1872823664119823e+01  1.1464578415345670e+01  1.1058689283666400e+01  1.0655247078083468e+01  1.0254355181935763e+01  9.8561305459729915e+00  9.4607046574460316e+00  9.0682244511554071e+00  8.6788531192911282e+00  8.2927707645485853e+00  7.9101748264677338e+00  7.5312801944477341e+00  7.1563188992465916e+00  6.7855392503187391e+00  6.4192042578727229e+00  6.0575891440445861e+00  5.7009777112220910e+00  5.3496572952960433e+00  5.0039119964223078e+00  4.6640138591173228e+00  4.3302116985916683e+00  4.0027174015625135e+00  3.6816899160262477e+00  3.3672181218790551e+00  3.0593061528911272e+00  2.7578705328781852e+00  2.4627728958680675e+00  2.1739492452401463e+00  1.8917982072933568e+00  1.6182927732434229e+00  1.3602615492334094e+00  1.1392619689271830e+00  1.0162013278992577e+00  1.1084161162709061e+00  1.5080668835551010e+00  2.2651048078364315e+00  3.5224855951310263e+00  5.3783015830053511e+00  7.1910499432476058e+00  7.5477920618442695e+01  9.0289644265352891e+01  1.0103053934811503e+02  1.0559863028288424e+02  1.0630829272384359e+02  1.0536624702283906e+02  1.0391233915992780e+02  1.0241541776119837e+02  1.0103648846659230e+02  9.9810999239078868e+01  9.8727675974794636e+01  9.7760906103823146e+01  9.6883518068410609e+01  9.6071395799124929e+01  9.5304736471025080e+01  9.4567983270830297e+01  9.3849292436991917e+01  9.3139892066142934e+01  9.2433473653264741e+01  9.1725664204737669e+01  9.1013587691649334e+01  9.0295509316257778e+01  8.9570551125806219e+01  8.8838466924342441e+01  8.8099465526613059e+01  8.7354072993698040e+01  8.6603026096209149e+01  8.5847190683728897e+01  8.5087499850230984e+01  8.4324907781382464e+01  8.3560355978241290e+01  8.2794749203889083e+01  8.2028939024297145e+01  8.1263713236871041e+01  8.0499789820291340e+01  7.9737814313587393e+01  7.8978359754122437e+01  7.8221928483395899e+01  7.7468955274714133e+01  7.6719811354173842e+01  7.5974808981222552e+01  7.5234206331756155e+01  7.4498212488271193e+01  7.3766992391011001e+01  7.3040671643614900e+01  7.2319341097987561e+01  7.1603061167872070e+01  7.0891865839893811e+01  7.0185766365730544e+01  6.9484754630433940e+01  6.8788806200453323e+01  6.8097883061072110e+01  6.7411936057423986e+01  6.6730907056167908e+01  6.6054730846746082e+01  6.5383336802044525e+01  6.4716650318681999e+01  6.4054594056745074e+01  6.3397088998416415e+01  6.2744055343874592e+01  6.2095413262037532e+01  6.1451083512401993e+01  6.0810987953133079e+01  6.0175049949377247e+01  5.9543194694450285e+01  5.8915349455537161e+01  5.8291443754264613e+01  5.7671409491584491e+01  5.7055181025334505e+01  5.6442695207879545e+01  5.5833891390557220e+01  5.5228711400592623e+01  5.4627099495698815e+01  5.4029002300775453e+01  5.3434368730563030e+01  5.2843149901571650e+01  5.2255299036210211e+01  5.1670771361524324e+01  5.1089524004581037e+01  5.0511515886301460e+01  4.9936707615138282e+01  4.9365061381856393e+01  4.8796540856290200e+01  4.8231111086979588e+01  4.7668738404138004e+01  4.7109390326603268e+01  4.6553035472933999e+01  4.5999643477035974e+01  4.5449184908313320e+01  4.4901631196597535e+01  4.4356954561703077e+01  4.3815127947638040e+01  4.3276124961430028e+01  4.2739919816363980e+01  4.2206487279534777e+01  4.1675802623578278e+01  4.1147841582352349e+01  4.0622580310432909e+01  4.0099995346208530e+01  3.9580063578365618e+01  3.9062762215621369e+01  3.8548068759454608e+01  3.8035960979691566e+01  3.7526416892757830e+01  3.7019414742409040e+01  3.6514932982759198e+01  3.6012950263495910e+01  3.5513445417167006e+01  3.5016397448199641e+01  3.4521785523859009e+01  3.4029588966682155e+01  3.3539787248557190e+01  3.3052359986186509e+01  3.2567286937944523e+01  3.2084548001952705e+01  3.1604123215533200e+01  3.1125992755647449e+01  3.0650136940714503e+01  3.0176536233337483e+01  2.9705171244341052e+01  2.9236022737913988e+01  2.8769071637833985e+01  2.8304299035006540e+01  2.7841686196265680e+01  2.7381214574471514e+01  2.6922865820146896e+01  2.6466621794666281e+01  2.6012464585200615e+01  2.5560376521575733e+01  2.5110340195287637e+01  2.4662338480881818e+01  2.4216354560002607e+01  2.3772371948512699e+01  2.3330374526850008e+01  2.2890346574260182e+01  2.2452272807323016e+01  2.2016138423191233e+01  2.1581929148301345e+01  2.1149631293160549e+01  2.0719231813902912e+01  2.0290718381549915e+01  1.9864079459749750e+01  1.9439304392107214e+01  1.9016383500187864e+01  1.8595308193166542e+01  1.8176071090684157e+01  1.7758666160028312e+01  1.7343088869123839e+01  1.6929336356853188e+01  1.6517407622192799e+01  1.6107303733639426e+01  1.5699028060691900e+01  1.5292586528435621e+01  1.4887987897173995e+01  1.4485244067529264e+01  1.4084370412639357e+01  1.3685386137318581e+01  1.3288314664600373e+01  1.2893184048564587e+01  1.2500027412114051e+01  1.2108883406864958e+01  1.1719796691057383e+01  1.1332818419929412e+01  1.0948006740683475e+01  1.0565427282218046e+01  1.0185153626988537e+01  9.8072677494543044e+00  9.4318604023159693e+00  9.0590314287216671e+00  8.6888899751984603e+00  8.3215545782715896e+00  7.9571530963390718e+00  7.5958224607962839e+00  7.2377082277056282e+00  6.8829639266399996e+00  6.5317502337739137e+00  6.1842340508540774e+00  5.8405876655768330e+00  5.5009883314736880e+00  5.1656188829042629e+00  4.8346704776990173e+00  4.5083493920817261e+00  4.1868912638243803e+00  3.8705888418996115e+00  3.5598442250626778e+00  3.2552659107338093e+00  2.9578490915492961e+00  2.6693133348068465e+00  2.3927418577177497e+00  2.1337963416296950e+00  1.9029681860507559e+00  1.7193125071048161e+00  1.6146437148259642e+00  1.6323266850097398e+00  1.8140068476643987e+00  2.1882125925229210e+00  2.7794426169781326e+00  3.6207112770649172e+00  4.7325157696691917e+00  6.0158626831645279e+00  7.1219919798223481e+00  6.6857489930130541e+01  7.7544818501844475e+01  8.6766720292083264e+01  9.2713384543596419e+01  9.5633048676789784e+01  9.6553848143631242e+01  9.6372294770604725e+01  9.5657060465365660e+01  9.4721888409792740e+01  9.3725800626578391e+01  9.2742860447776252e+01  9.1802878324483814e+01  9.0913607920315229e+01  9.0072480441985448e+01  8.9272679398584131e+01  8.8506203818518557e+01  8.7765341154987155e+01  8.7043307260910552e+01  8.6334457138036029e+01  8.5634281922452601e+01  8.4939306883405649e+01  8.4246951011712653e+01  8.3555379444950987e+01  8.2863364078227931e+01  8.2170159127716943e+01  8.1475393846603