<?xml version="1.0"?>
<VTKFile type="UnstructuredGrid"  version="0.1"  >
<UnstructuredGrid>
<Piece  NumberOfPoints="20251" NumberOfCells="40000">
<Points>
<DataArray  type="Float64"  NumberOfComponents="3"  format="ascii">0 0 0  0.02 0 0  0.04 0 0  0.06 0 0  0.08 0 0  0.1 0 0  0.12 0 0  0.14 0 0  0.16 0 0  0.18 0 0  0.2 0 0  0.22 0 0  0.24 0 0  0.26 0 0  0.28 0 0  0.3 0 0  0.32 0 0  0.34 0 0  0.36 0 0  0.38 0 0  0.4 0 0  0.42 0 0  0.44 0 0  0.46 0 0  0.48 0 0  0.5 0 0  0.52 0 0  0.54 0 0  0.5600000000000001 0 0  0.58 0 0  0.6 0 0  0.62 0 0  0.64 0 0  0.66 0 0  0.68 0 0  0.7 0 0  0.72 0 0  0.74 0 0  0.76 0 0  0.78 0 0  0.8 0 0  0.82 0 0  0.84 0 0  0.86 0 0  0.88 0 0  0.9 0 0  0.92 0 0  0.9399999999999999 0 0  0.96 0 0  0.98 0 0  1 0 0  1.02 0 0  1.04 0 0  1.06 0 0  1.08 0 0  1.1 0 0  1.12 0 0  1.14 0 0  1.16 0 0  1.18 0 0  1.2 0 0  1.22 0 0  1.24 0 0  1.26 0 0  1.28 0 0  1.3 0 0  1.32 0 0  1.34 0 0  1.36 0 0  1.38 0 0  1.4 0 0  1.42 0 0  1.44 0 0  1.46 0 0  1.48 0 0  1.5 0 0  1.52 0 0  1.54 0 0  1.56 0 0  1.58 0 0  1.6 0 0  1.62 0 0  1.64 0 0  1.66 0 0  1.68 0 0  1.7 0 0  1.72 0 0  1.74 0 0  1.76 0 0  1.78 0 0  1.8 0 0  1.82 0 0  1.84 0 0  1.86 0 0  1.88 0 0  1.9 0 0  1.92 0 0  1.94 0 0  1.96 0 0  1.98 0 0  2 0 0  2.02 0 0  2.04 0 0  2.06 0 0  2.08 0 0  2.1 0 0  2.12 0 0  2.14 0 0  2.16 0 0  2.18 0 0  2.2 0 0  2.22 0 0  2.24 0 0  2.26 0 0  2.28 0 0  2.3 0 0  2.32 0 0  2.34 0 0  2.36 0 0  2.38 0 0  2.4 0 0  2.42 0 0  2.44 0 0  2.46 0 0  2.48 0 0  2.5 0 0  2.52 0 0  2.54 0 0  2.56 0 0  2.58 0 0  2.6 0 0  2.62 0 0  2.64 0 0  2.66 0 0  2.68 0 0  2.7 0 0  2.72 0 0  2.74 0 0  2.76 0 0  2.78 0 0  2.8 0 0  2.82 0 0  2.84 0 0  2.86 0 0  2.88 0 0  2.9 0 0  2.92 0 0  2.94 0 0  2.96 0 0  2.98 0 0  3 0 0  3.02 0 0  3.04 0 0  3.06 0 0  3.08 0 0  3.1 0 0  3.12 0 0  3.14 0 0  3.16 0 0  3.18 0 0  3.2 0 0  3.22 0 0  3.24 0 0  3.26 0 0  3.28 0 0  3.3 0 0  3.32 0 0  3.34 0 0  3.36 0 0  3.38 0 0  3.4 0 0  3.42 0 0  3.44 0 0  3.46 0 0  3.48 0 0  3.5 0 0  3.52 0 0  3.54 0 0  3.56 0 0  3.58 0 0  3.6 0 0  3.62 0 0  3.64 0 0  3.66 0 0  3.68 0 0  3.7 0 0  3.72 0 0  3.74 0 0  3.76 0 0  3.78 0 0  3.8 0 0  3.82 0 0  3.84 0 0  3.86 0 0  3.88 0 0  3.9 0 0  3.92 0 0  3.94 0 0  3.96 0 0  3.98 0 0  4 0 0  0 0.02 0  0.02 0.02 0  0.04 0.02 0  0.06 0.02 0  0.08 0.02 0  0.1 0.02 0  0.12 0.02 0  0.14 0.02 0  0.16 0.02 0  0.18 0.02 0  0.2 0.02 0  0.22 0.02 0  0.24 0.02 0  0.26 0.02 0  0.28 0.02 0  0.3 0.02 0  0.32 0.02 0  0.34 0.02 0  0.36 0.02 0  0.38 0.02 0  0.4 0.02 0  0.42 0.02 0  0.44 0.02 0  0.46 0.02 0  0.48 0.02 0  0.5 0.02 0  0.52 0.02 0  0.54 0.02 0  0.5600000000000001 0.02 0  0.58 0.02 0  0.6 0.02 0  0.62 0.02 0  0.64 0.02 0  0.66 0.02 0  0.68 0.02 0  0.7 0.02 0  0.72 0.02 0  0.74 0.02 0  0.76 0.02 0  0.78 0.02 0  0.8 0.02 0  0.82 0.02 0  0.84 0.02 0  0.86 0.02 0  0.88 0.02 0  0.9 0.02 0  0.92 0.02 0  0.9399999999999999 0.02 0  0.96 0.02 0  0.98 0.02 0  1 0.02 0  1.02 0.02 0  1.04 0.02 0  1.06 0.02 0  1.08 0.02 0  1.1 0.02 0  1.12 0.02 0  1.14 0.02 0  1.16 0.02 0  1.18 0.02 0  1.2 0.02 0  1.22 0.02 0  1.24 0.02 0  1.26 0.02 0  1.28 0.02 0  1.3 0.02 0  1.32 0.02 0  1.34 0.02 0  1.36 0.02 0  1.38 0.02 0  1.4 0.02 0  1.42 0.02 0  1.44 0.02 0  1.46 0.02 0  1.48 0.02 0  1.5 0.02 0  1.52 0.02 0  1.54 0.02 0  1.56 0.02 0  1.58 0.02 0  1.6 0.02 0  1.62 0.02 0  1.64 0.02 0  1.66 0.02 0  1.68 0.02 0  1.7 0.02 0  1.72 0.02 0  1.74 0.02 0  1.76 0.02 0  1.78 0.02 0  1.8 0.02 0  1.82 0.02 0  1.84 0.02 0  1.86 0.02 0  1.88 0.02 0  1.9 0.02 0  1.92 0.02 0  1.94 0.02 0  1.96 0.02 0  1.98 0.02 0  2 0.02 0  2.02 0.02 0  2.04 0.02 0  2.06 0.02 0  2.08 0.02 0  2.1 0.02 0  2.12 0.02 0  2.14 0.02 0  2.16 0.02 0  2.18 0.02 0  2.2 0.02 0  2.22 0.02 0  2.24 0.02 0  2.26 0.02 0  2.28 0.02 0  2.3 0.02 0  2.32 0.02 0  2.34 0.02 0  2.36 0.02 0  2.38 0.02 0  2.4 0.02 0  2.42 0.02 0  2.44 0.02 0  2.46 0.02 0  2.48 0.02 0  2.5 0.02 0  2.52 0.02 0  2.54 0.02 0  2.56 0.02 0  2.58 0.02 0  2.6 0.02 0  2.62 0.02 0  2.64 0.02 0  2.66 0.02 0  2.68 0.02 0  2.7 0.02 0  2.72 0.02 0  2.74 0.02 0  2.76 0.02 0  2.78 0.02 0  2.8 0.02 0  2.82 0.02 0  2.84 0.02 0  2.86 0.02 0  2.88 0.02 0  2.9 0.02 0  2.92 0.02 0  2.94 0.02 0  2.96 0.02 0  2.98 0.02 0  3 0.02 0  3.02 0.02 0  3.04 0.02 0  3.06 0.02 0  3.08 0.02 0  3.1 0.02 0  3.12 0.02 0  3.14 0.02 0  3.16 0.02 0  3.18 0.02 0  3.2 0.02 0  3.22 0.02 0  3.24 0.02 0  3.26 0.02 0  3.28 0.02 0  3.3 0.02 0  3.32 0.02 0  3.34 0.02 0  3.36 0.02 0  3.38 0.02 0  3.4 0.02 0  3.42 0.02 0  3.44 0.02 0  3.46 0.02 0  3.48 0.02 0  3.5 0.02 0  3.52 0.02 0  3.54 0.02 0  3.56 0.02 0  3.58 0.02 0  3.6 0.02 0  3.62 0.02 0  3.64 0.02 0  3.66 0.02 0  3.68 0.02 0  3.7 0.02 0  3.72 0.02 0  3.74 0.02 0  3.76 0.02 0  3.78 0.02 0  3.8 0.02 0  3.82 0.02 0  3.84 0.02 0  3.86 0.02 0  3.88 0.02 0  3.9 0.02 0  3.92 0.02 0  3.94 0.02 0  3.96 0.02 0  3.98 0.02 0  4 0.02 0  0 0.04 0  0.02 0.04 0  0.04 0.04 0  0.06 0.04 0  0.08 0.04 0  0.1 0.04 0  0.12 0.04 0  0.14 0.04 0  0.16 0.04 0  0.18 0.04 0  0.2 0.04 0  0.22 0.04 0  0.24 0.04 0  0.26 0.04 0  0.28 0.04 0  0.3 0.04 0  0.32 0.04 0  0.34 0.04 0  0.36 0.04 0  0.38 0.04 0  0.4 0.04 0  0.42 0.04 0  0.44 0.04 0  0.46 0.04 0  0.48 0.04 0  0.5 0.04 0  0.52 0.04 0  0.54 0.04 0  0.5600000000000001 0.04 0  0.58 0.04 0  0.6 0.04 0  0.62 0.04 0  0.64 0.04 0  0.66 0.04 0  0.68 0.04 0  0.7 0.04 0  0.72 0.04 0  0.74 0.04 0  0.76 0.04 0  0.78 0.04 0  0.8 0.04 0  0.82 0.04 0  0.84 0.04 0  0.86 0.04 0  0.88 0.04 0  0.9 0.04 0  0.92 0.04 0  0.9399999999999999 0.04 0  0.96 0.04 0  0.98 0.04 0  1 0.04 0  1.02 0.04 0  1.04 0.04 0  1.06 0.04 0  1.08 0.04 0  1.1 0.04 0  1.12 0.04 0  1.14 0.04 0  1.16 0.04 0  1.18 0.04 0  1.2 0.04 0  1.22 0.04 0  1.24 0.04 0  1.26 0.04 0  1.28 0.04 0  1.3 0.04 0  1.32 0.04 0  1.34 0.04 0  1.36 0.04 0  1.38 0.04 0  1.4 0.04 0  1.42 0.04 0  1.44 0.04 0  1.46 0.04 0  1.48 0.04 0  1.5 0.04 0  1.52 0.04 0  1.54 0.04 0  1.56 0.04 0  1.58 0.04 0  1.6 0.04 0  1.62 0.04 0  1.64 0.04 0  1.66 0.04 0  1.68 0.04 0  1.7 0.04 0  1.72 0.04 0  1.74 0.04 0  1.76 0.04 0  1.78 0.04 0  1.8 0.04 0  1.82 0.04 0  1.84 0.04 0  1.86 0.04 0  1.88 0.04 0  1.9 0.04 0  1.92 0.04 0  1.94 0.04 0  1.96 0.04 0  1.98 0.04 0  2 0.04 0  2.02 0.04 0  2.04 0.04 0  2.06 0.04 0  2.08 0.04 0  2.1 0.04 0  2.12 0.04 0  2.14 0.04 0  2.16 0.04 0  2.18 0.04 0  2.2 0.04 0  2.22 0.04 0  2.24 0.04 0  2.26 0.04 0  2.28 0.04 0  2.3 0.04 0  2.32 0.04 0  2.34 0.04 0  2.36 0.04 0  2.38 0.04 0  2.4 0.04 0  2.42 0.04 0  2.44 0.04 0  2.46 0.04 0  2.48 0.04 0  2.5 0.04 0  2.52 0.04 0  2.54 0.04 0  2.56 0.04 0  2.58 0.04 0  2.6 0.04 0  2.62 0.04 0  2.64 0.04 0  2.66 0.04 0  2.68 0.04 0  2.7 0.04 0  2.72 0.04 0  2.74 0.04 0  2.76 0.04 0  2.78 0.04 0  2.8 0.04 0  2.82 0.04 0  2.84 0.04 0  2.86 0.04 0  2.88 0.04 0  2.9 0.04 0  2.92 0.04 0  2.94 0.04 0  2.96 0.04 0  2.98 0.04 0  3 0.04 0  3.02 0.04 0  3.04 0.04 0  3.06 0.04 0  3.08 0.04 0  3.1 0.04 0  3.12 0.04 0  3.14 0.04 0  3.16 0.04 0  3.18 0.04 0  3.2 0.04 0  3.22 0.04 0  3.24 0.04 0  3.26 0.04 0  3.28 0.04 0  3.3 0.04 0  3.32 0.04 0  3.34 0.04 0  3.36 0.04 0  3.38 0.04 0  3.4 0.04 0  3.42 0.04 0  3.44 0.04 0  3.46 0.04 0  3.48 0.04 0  3.5 0.04 0  3.52 0.04 0  3.54 0.04 0  3.56 0.04 0  3.58 0.04 0  3.6 0.04 0  3.62 0.04 0  3.64 0.04 0  3.66 0.04 0  3.68 0.04 0  3.7 0.04 0  3.72 0.04 0  3.74 0.04 0  3.76 0.04 0  3.78 0.04 0  3.8 0.04 0  3.82 0.04 0  3.84 0.04 0  3.86 0.04 0  3.88 0.04 0  3.9 0.04 0  3.92 0.04 0  3.94 0.04 0  3.96 0.04 0  3.98 0.04 0  4 0.04 0  0 0.06 0  0.02 0.06 0  0.04 0.06 0  0.06 0.06 0  0.08 0.06 0  0.1 0.06 0  0.12 0.06 0  0.14 0.06 0  0.16 0.06 0  0.18 0.06 0  0.2 0.06 0  0.22 0.06 0  0.24 0.06 0  0.26 0.06 0  0.28 0.06 0  0.3 0.06 0  0.32 0.06 0  0.34 0.06 0  0.36 0.06 0  0.38 0.06 0  0.4 0.06 0  0.42 0.06 0  0.44 0.06 0  0.46 0.06 0  0.48 0.06 0  0.5 0.06 0  0.52 0.06 0  0.54 0.06 0  0.5600000000000001 0.06 0  0.58 0.06 0  0.6 0.06 0  0.62 0.06 0  0.64 0.06 0  0.66 0.06 0  0.68 0.06 0  0.7 0.06 0  0.72 0.06 0  0.74 0.06 0  0.76 0.06 0  0.78 0.06 0  0.8 0.06 0  0.82 0.06 0  0.84 0.06 0  0.86 0.06 0  0.88 0.06 0  0.9 0.06 0  0.92 0.06 0  0.9399999999999999 0.06 0  0.96 0.06 0  0.98 0.06 0  1 0.06 0  1.02 0.06 0  1.04 0.06 0  1.06 0.06 0  1.08 0.06 0  1.1 0.06 0  1.12 0.06 0  1.14 0.06 0  1.16 0.06 0  1.18 0.06 0  1.2 0.06 0  1.22 0.06 0  1.24 0.06 0  1.26 0.06 0  1.28 0.06 0  1.3 0.06 0  1.32 0.06 0  1.34 0.06 0  1.36 0.06 0  1.38 0.06 0  1.4 0.06 0  1.42 0.06 0  1.44 0.06 0  1.46 0.06 0  1.48 0.06 0  1.5 0.06 0  1.52 0.06 0  1.54 0.06 0  1.56 0.06 0  1.58 0.06 0  1.6 0.06 0  1.62 0.06 0  1.64 0.06 0  1.66 0.06 0  1.68 0.06 0  1.7 0.06 0  1.72 0.06 0  1.74 0.06 0  1.76 0.06 0  1.78 0.06 0  1.8 0.06 0  1.82 0.06 0  1.84 0.06 0  1.86 0.06 0  1.88 0.06 0  1.9 0.06 0  1.92 0.06 0  1.94 0.06 0  1.96 0.06 0  1.98 0.06 0  2 0.06 0  2.02 0.06 0  2.04 0.06 0  2.06 0.06 0  2.08 0.06 0  2.1 0.06 0  2.12 0.06 0  2.14 0.06 0  2.16 0.06 0  2.18 0.06 0  2.2 0.06 0  2.22 0.06 0  2.24 0.06 0  2.26 0.06 0  2.28 0.06 0  2.3 0.06 0  2.32 0.06 0  2.34 0.06 0  2.36 0.06 0  2.38 0.06 0  2.4 0.06 0  2.42 0.06 0  2.44 0.06 0  2.46 0.06 0  2.48 0.06 0  2.5 0.06 0  2.52 0.06 0  2.54 0.06 0  2.56 0.06 0  2.58 0.06 0  2.6 0.06 0  2.62 0.06 0  2.64 0.06 0  2.66 0.06 0  2.68 0.06 0  2.7 0.06 0  2.72 0.06 0  2.74 0.06 0  2.76 0.06 0  2.78 0.06 0  2.8 0.06 0  2.82 0.06 0  2.84 0.06 0  2.86 0.06 0  2.88 0.06 0  2.9 0.06 0  2.92 0.06 0  2.94 0.06 0  2.96 0.06 0  2.98 0.06 0  3 0.06 0  3.02 0.06 0  3.04 0.06 0  3.06 0.06 0  3.08 0.06 0  3.1 0.06 0  3.12 0.06 0  3.14 0.06 0  3.16 0.06 0  3.18 0.06 0  3.2 0.06 0  3.22 0.06 0  3.24 0.06 0  3.26 0.06 0  3.28 0.06 0  3.3 0.06 0  3.32 0.06 0  3.34 0.06 0  3.36 0.06 0  3.38 0.06 0  3.4 0.06 0  3.42 0.06 0  3.44 0.06 0  3.46 0.06 0  3.48 0.06 0  3.5 0.06 0  3.52 0.06 0  3.54 0.06 0  3.56 0.06 0  3.58 0.06 0  3.6 0.06 0  3.62 0.06 0  3.64 0.06 0  3.66 0.06 0  3.68 0.06 0  3.7 0.06 0  3.72 0.06 0  3.74 0.06 0  3.76 0.06 0  3.78 0.06 0  3.8 0.06 0  3.82 0.06 0  3.84 0.06 0  3.86 0.06 0  3.88 0.06 0  3.9 0.06 0  3.92 0.06 0  3.94 0.06 0  3.96 0.06 0  3.98 0.06 0  4 0.06 0  0 0.08 0  0.02 0.08 0
[...]
<PointData  Vectors="f_7"> 
<DataArray  type="Float64"  Name="f_7"  NumberOfComponents="3" format="ascii">0.0000000000000000e+00 0.0000000000000000e+00 0.0000000000000000e+00  -3.2577654513788294e-03 -2.6044367975099516e-03 0.0000000000000000e+00  -5.4225492494914627e-03 -4.1088749934933408e-03 0.0000000000000000e+00  -7.4036155255005785e-03 -5.2865533335072438e-03 0.0000000000000000e+00  -9.3191889098543073e-03 -6.3177210985002237e-03 0.0000000000000000e+00  -1.1205517118789816e-02 -7.2781780221064319e-03 0.0000000000000000e+00  -1.3079134356563007e-02 -8.2102858004361196e-03 0.0000000000000000e+00  -1.4948229011509894e-02 -9.1410689284945161e-03 0.0000000000000000e+00  -1.6816907809374938e-02 -1.0088952806534818e-02 0.0000000000000000e+00  -1.8687157002265909e-02 -1.1067037595677879e-02 0.0000000000000000e+00  -2.0559809499168018e-02 -1.2084910280254546e-02 0.0000000000000000e+00  -2.2435055134149767e-02 -1.3149728789625507e-02 0.0000000000000000e+00  -2.4312725357052086e-02 -1.4266909920422533e-02 0.0000000000000000e+00  -2.6192458677374908e-02 -1.5440586803644173e-02 0.0000000000000000e+00  -2.8073799507614721e-02 -1.6673924874981441e-02 0.0000000000000000e+00  -2.9956258161231517e-02 -1.7969347013809263e-02 0.0000000000000000e+00  -3.1839347399889466e-02 -1.9328698168567991e-02 0.0000000000000000e+00  -3.3722604432896840e-02 -2.0753368377304716e-02 0.0000000000000000e+00  -3.5605603700798905e-02 -2.2244386398888323e-02 0.0000000000000000e+00  -3.7487963732488430e-02 -2.3802492089565700e-02 0.0000000000000000e+00  -3.9369350157052709e-02 -2.5428193087601868e-02 0.0000000000000000e+00  -4.1249476215902477e-02 -2.7121809700336057e-02 0.0000000000000000e+00  -4.3128101661163334e-02 -2.8883510777825736e-02 0.0000000000000000e+00  -4.5005030632635855e-02 -3.0713342601654561e-02 0.0000000000000000e+00  -4.6880108914101035e-02 -3.2611252292643299e-02 0.0000000000000000e+00  -4.8753220842512345e-02 -3.4577106869853921e-02 0.0000000000000000e+00  -5.0624286057663379e-02 -3.6610708826037619e-02 0.0000000000000000e+00  -5.2493256220967975e-02 -3.8711808889316815e-02 0.0000000000000000e+00  -5.4360111790998443e-02 -4.0880116495965950e-02 0.0000000000000000e+00  -5.6224858914581045e-02 -4.3115308390153970e-02 0.0000000000000000e+00  -5.8087526471739877e-02 -4.5417035683454385e-02 0.0000000000000000e+00  -5.9948163298083793e-02 -4.7784929642855842e-02 0.0000000000000000e+00  -6.1806835597643814e-02 -5.0218606426001740e-02 0.0000000000000000e+00  -6.3663624551526979e-02 -5.2717670942929742e-02 0.0000000000000000e+00  -6.5518624122250305e-02 -5.5281719992127602e-02 0.0000000000000000e+00  -6.7371939049689231e-02 -5.7910344793405691e-02 0.0000000000000000e+00  -6.9223683031813893e-02 -6.0603133019533274e-02 0.0000000000000000e+00  -7.1073977081500886e-02 -6.3359670411764157e-02 0.0000000000000000e+00  -7.2922948049484196e-02 -6.6179542050514836e-02 0.0000000000000000e+00  -7.4770727302784293e-02 -6.9062333340959431e-02 0.0000000000000000e+00  -7.6617449547610295e-02 -7.2007630763719369e-02 0.0000000000000000e+00  -7.8463251785671567e-02 -7.5015022432793912e-02 0.0000000000000000e+00  -8.0308272392992805e-02 -7.8084098496126519e-02 0.0000000000000000e+00  -8.2152650310641437e-02 -8.1214451408506486e-02 0.0000000000000000e+00  -8.3996524337207126e-02 -8.4405676101694471e-02 0.0000000000000000e+00  -8.5840032513382805e-02 -8.7657370072584534e-02 0.0000000000000000e+00  -8.7683311589558902e-02 -9.0969133406764532e-02 0.0000000000000000e+00  -8.9526496567934488e-02 -9.4340568751910589e-02 0.0000000000000000e+00  -9.1369720311254871e-02 -9.7771281252970951e-02 0.0000000000000000e+00  -9.3213113210889820e-02 -1.0126087845899545e-01 0.0000000000000000e+00  -9.5056802907561327e-02 -1.0480897020969039e-01 0.0000000000000000e+00  -9.6900914058606041e-02 -1.0841516850827865e-01 0.0000000000000000e+00  -9.8745568146208967e-02 -1.1207908738598100e-01 0.0000000000000000e+00  -1.0059088332156957e-01 -1.1580034276237318e-01 0.0000000000000000e+00  -1.0243697428045410e-01 -1.1957855230498239e-01 0.0000000000000000e+00  -1.0428395216604913e-01 -1.2341333529074520e-01 0.0000000000000000e+00  -1.0613192449545879e-01 -1.2730431247133048e-01 0.0000000000000000e+00  -1.0798099510658378e-01 -1.3125110594382100e-01 0.0000000000000000e+00  -1.0983126412248306e-01 -1.3525333902782677e-01 0.0000000000000000e+00  -1.1168282793064985e-01 -1.3931063614976014e-01 0.0000000000000000e+00  -1.1353577917493687e-01 -1.4342262273472464e-01 0.0000000000000000e+00  -1.1539020675813755e-01 -1.4758892510624599e-01 0.0000000000000000e+00  -1.1724619585347783e-01 -1.5180917039389602e-01 0.0000000000000000e+00  -1.1910382792349412e-01 -1.5608298644872151e-01 0.0000000000000000e+00  -1.2096318074497252e-01 -1.6041000176628342e-01 0.0000000000000000e+00  -1.2282432843880080e-01 -1.6478984541703126e-01 0.0000000000000000e+00  -1.2468734150374343e-01 -1.6922214698367877e-01 0.0000000000000000e+00  -1.2655228685328934e-01 -1.7370653650520809e-01 0.0000000000000000e+00  -1.2841922785484572e-01 -1.7824264442710197e-01 0.0000000000000000e+00  -1.3028822437066012e-01 -1.8283010155739080e-01 0.0000000000000000e+00  -1.3215933279994982e-01 -1.8746853902809701e-01 0.0000000000000000e+00  -1.3403260612179876e-01 -1.9215758826166018e-01 0.0000000000000000e+00  -1.3590809393845829e-01 -1.9689688094193689e-01 0.0000000000000000e+00  -1.3778584251874890e-01 -2.0168604898938144e-01 0.0000000000000000e+00  -1.3966589484131695e-01 -2.0652472454002821e-01 0.0000000000000000e+00  -1.4154829063754634e-01 -2.1141253992791714e-01 0.0000000000000000e+00  -1.4343306643396708e-01 -2.1634912767062084e-01 0.0000000000000000e+00  -1.4532025559403614e-01 -2.2133412045755488e-01 0.0000000000000000e+00  -1.4720988835919746e-01 -2.2636715114077169e-01 0.0000000000000000e+00  -1.4910199188915080e-01 -2.3144785272796067e-01 0.0000000000000000e+00  -1.5099659030128279e-01 -2.3657585837739728e-01 0.0000000000000000e+00  -1.5289370470922872e-01 -2.4175080139460359e-01 0.0000000000000000e+00  -1.5479335326055041e-01 -2.4697231523050253e-01 0.0000000000000000e+00  -1.5669555117352629e-01 -2.5224003348086660e-01 0.0000000000000000e+00  -1.5860031077305978e-01 -2.5755358988687788e-01 0.0000000000000000e+00  -1.6050764152572078e-01 -2.6291261833663526e-01 0.0000000000000000e+00  -1.6241755007394010e-01 -2.6831675286745738e-01 0.0000000000000000e+00  -1.6433004026938253e-01 -2.7376562766884599e-01 0.0000000000000000e+00  -1.6624511320552743e-01 -2.7925887708598790e-01 0.0000000000000000e+00  -1.6816276724948792e-01 -2.8479613562368472e-01 0.0000000000000000e+00  -1.7008299807310293e-01 -2.9037703795061270e-01 0.0000000000000000e+00  -1.7200579868333532e-01 -2.9600121890382403e-01 0.0000000000000000e+00  -1.7393115945201171e-01 -3.0166831349341205e-01 0.0000000000000000e+00  -1.7585906814493876e-01 -3.0737795690727027e-01 0.0000000000000000e+00  -1.7778950995043014e-01 -3.1312978451588414e-01 0.0000000000000000e+00  -1.7972246750727777e-01 -3.1892343187710193e-01 0.0000000000000000e+00  -1.8165792093220065e-01 -3.2475853474083527e-01 0.0000000000000000e+00  -1.8359584784680213e-01 -3.3063472905365127e-01 0.0000000000000000e+00  -1.8553622340406686e-01 -3.3655165096321615e-01 0.0000000000000000e+00  -1.8747902031442515e-01 -3.4250893682256212e-01 0.0000000000000000e+00  -1.8942420887141320e-01 -3.4850622319414915e-01 0.0000000000000000e+00  -1.9137175697695458e-01 -3.5454314685369842e-01 0.0000000000000000e+00  -1.9332163016628715e-01 -3.6061934479377811e-01 0.0000000000000000e+00  -1.9527379163255887e-01 -3.6673445422712503e-01 0.0000000000000000e+00  -1.9722820225111276e-01 -3.7288811258968690e-01 0.0000000000000000e+00  -1.9918482060348194e-01 -3.7907995754337509e-01 0.0000000000000000e+00  -2.0114360300111186e-01 -3.8530962697851634e-01 0.0000000000000000e+00  -2.0310450350882756e-01 -3.9157675901599603e-01 0.0000000000000000e+00  -2.0506747396806085e-01 -3.9788099200908728e-01 0.0000000000000000e+00  -2.0703246401985154e-01 -4.0422196454495751e-01 0.0000000000000000e+00  -2.0899942112763589e-01 -4.1059931544585071e-01 0.0000000000000000e+00  -2.1096829059983416e-01 -4.1701268376993927e-01 0.0000000000000000e+00  -2.1293901561224701e-01 -4.2346170881184247e-01 0.0000000000000000e+00  -2.1491153723027118e-01 -4.2994603010280780e-01 0.0000000000000000e+00  -2.1688579443094297e-01 -4.3646528741055224e-01 0.0000000000000000e+00  -2.1886172412481616e-01 -4.4301912073875810e-01 0.0000000000000000e+00  -2.2083926117768299e-01 -4.4960717032622094e-01 0.0000000000000000e+00  -2.2281833843214338e-01 -4.5622907664564344e-01 0.0000000000000000e+00  -2.2479888672902859e-01 -4.6288448040206970e-01 0.0000000000000000e+00  -2.2678083492868489e-01 -4.6957302253095196e-01 0.0000000000000000e+00  -2.2876410993212268e-01 -4.7629434419584216e-01 0.0000000000000000e+00  -2.3074863670203610e-01 -4.8304808678569677e-01 0.0000000000000000e+00  -2.3273433828369952e-01 -4.8983389191178345e-01 0.0000000000000000e+00  -2.3472113582574669e-01 -4.9665140140417280e-01 0.0000000000000000e+00  -2.3670894860084046e-01 -5.0350025730779968e-01 0.0000000000000000e+00  -2.3869769402624150e-01 -5.1038010187807104e-01 0.0000000000000000e+00  -2.4068728768428757e-01 -5.1729057757599717e-01 0.0000000000000000e+00  -2.4267764334279601e-01 -5.2423132706281672e-01 0.0000000000000000e+00  -2.4466867297540695e-01 -5.3120199319408401e-01 0.0000000000000000e+00  -2.4666028678188825e-01 -5.3820221901317966e-01 0.0000000000000000e+00  -2.4865239320842888e-01 -5.4523164774420074e-01 0.0000000000000000e+00  -2.5064489896795400e-01 -5.5228992278418276e-01 0.0000000000000000e+00  -2.5263770906050304e-01 -5.5937668769459659e-01 0.0000000000000000e+00  -2.5463072679372328e-01 -5.6649158619205764e-01 0.0000000000000000e+00  -2.5662385380354147e-01 -5.7363426213817770e-01 0.0000000000000000e+00  -2.5861699007509392e-01 -5.8080435952848097e-01 0.0000000000000000e+00  -2.6061003396400939e-01 -5.8800152248029958e-01 0.0000000000000000e+00  -2.6260288221816463e-01 -5.9522539521955020e-01 0.0000000000000000e+00  -2.6459543000005425e-01 -6.0247562206629435e-01 0.0000000000000000e+00  -2.6658757090994939e-01 -6.0975184741896749e-01 0.0000000000000000e+00  -2.6857919701005339e-01 -6.1705371573715706e-01 0.0000000000000000e+00  -2.7057019884990713e-01 -6.2438087152280841e-01 0.0000000000000000e+00  -2.7256046549334501e-01 -6.3173295929972284e-01 0.0000000000000000e+00  -2.7454988454736123e-01 -6.3910962359121493e-01 0.0000000000000000e+00  -2.7653834219331608e-01 -6.4651050889579587e-01 0.0000000000000000e+00  -2.7852572322098962e-01 -6.5393525966074739e-01 0.0000000000000000e+00  -2.8051191106608619e-01 -6.6138352025346681e-01 0.0000000000000000e+00  -2.8249678785190008e-01 -6.6885493493047343e-01 0.0000000000000000e+00  -2.8448023443597753e-01 -6.7634914780399180e-01 0.0000000000000000e+00  -2.8646213046275892e-01 -6.8386580280606291e-01 0.0000000000000000e+00  -2.8844235442334820e-01 -6.9140454365018056e-01 0.0000000000000000e+00  -2.9042078372375396e-01 -6.9896501379051701e-01 0.0000000000000000e+00  -2.9239729476316323e-01 -7.0654685637888459e-01 0.0000000000000000e+00  -2.9437176302406703e-01 -7.1414971421969431e-01 0.0000000000000000e+00  -2.9634406317634215e-01 -7.2177322972331459e-01 0.0000000000000000e+00  -2.9831406919772624e-01 -7.2941704485841008e-01 0.0000000000000000e+00  -3.0028165451349631e-01 -7.3708080110407170e-01 0.0000000000000000e+00  -3.0224669215858768e-01 -7.4476413940282893e-01 0.0000000000000000e+00  -3.0420905496587131e-01 -7.5246670011598416e-01 0.0000000000000000e+00  -3.0616861578485116e-01 -7.6018812298313942e-01 0.0000000000000000e+00  -3.0812524773566075e-01 -7.6792804708831219e-01 0.0000000000000000e+00  -3.1007882450392554e-01 -7.7568611083567662e-01 0.0000000000000000e+00  -3.1202922068283906e-01 -7.8346195193875279e-01 0.0000000000000000e+00  -3.1397631216967575e-01 -7.9125520742780142e-01 0.0000000000000000e+00  -3.1591997662494542e-01 -7.9906551368133860e-01 0.0000000000000000e+00  -3.1786009400349841e-01 -8.0689250648905653e-01 0.0000000000000000e+00  -3.1979654716813222e-01 -8.1473582115510634e-01 0.0000000000000000e+00  -3.2172922259764802e-01 -8.2259509265271191e-01 0.0000000000000000e+00  -3.2365801120287857e-01 -8.3046995584350192e-01 0.0000000000000000e+00  -3.2558280926599531e-01 -8.3836004577788370e-01 0.0000000000000000e+00  -3.2750351952042550e-01 -8.4626499809631450e-01 0.0000000000000000e+00  -3.2942005239102951e-01 -8.5418444955563233e-01 0.0000000000000000e+00  -3.3133232741685253e-01 -8.6211803870982928e-01 0.0000000000000000e+00  -3.3324027488186220e-01 -8.7006540678104316e-01 0.0000000000000000e+00  -3.3514383768271599e-01 -8.7802619876440291e-01 0.0000000000000000e+00  -3.3704297346691220e-01 -8.8600006482007343e-01 0.0000000000000000e+00  -3.3893765707986573e-01 -8.9398666201796173e-01 0.0000000000000000e+00  -3.4082788336577335e-01 -9.0198565651576756e-01 0.0000000000000000e+00  -3.4271367037497780e-01 -9.0999672627039341e-01 0.0000000000000000e+00  -3.4459506304041543e-01 -9.1801956440754329e-01 0.0000000000000000e+00  -3.4647213739839716e-01 -9.2605388340657502e-01 0.0000000000000000e+00  -3.4834500544549452e-01 -9.3409942030014548e-01 0.0000000000000000e+00  -3.5021382074526120e-01 -9.4215594314493445e-01 0.0000000000000000e+00  -3.5207878492827827e-01 -9.5022325909684469e-01 0.0000000000000000e+00  -3.5394015527013950e-01 -9.5830122453067446e-01 0.0000000000000000e+00  -3.5579825359008449e-01 -9.6638975779455050e-01 0.0000000000000000e+00  -3.5765347679693443e-01 -9.7448885540586017e-01 0.0000000000000000e+00  -3.5950630953338891e-01 -9.8259861281468186e-01 0.0000000000000000e+00  -3.6135733955934163e-01 -9.9071925134427352e-01 0.0000000000000000e+00  -3.6320727681304588e-01 -9.9885115367300592e-01 0.0000000000000000e+00  -3.6505697757500027e-01 -1.0069949114415992e+00 0.0000000000000000e+00  -3.6690747598510182e-01 -1.0151513906197303e+00 0.0000000000000000e+00  -3.6876002663547952e-01 -1.0233218238779220e+00 0.0000000000000000e+00  -3.7061616473887699e-01 -1.0315079459389351e+00 0.0000000000000000e+00  -3.7247779598052710e-01 -1.0397122012958679e+00 0.0000000000000000e+00  -3.7434734044492535e-01 -1.0479380827495597e+00 0.0000000000000000e+00  -3.7622798515548062e-01 -1.0561907290459067e+00 0.0000000000000000e+00  -3.7812419289607307e-01 -1.0644781033911364e+00 0.0000000000000000e+00  -3.8004302500839060e-01 -1.0728137888960283e+00 0.0000000000000000e+00  -3.8199858336418846e-01 -1.0812269238404975e+00 0.0000000000000000e+00  -3.8401455855202371e-01 -1.0898318556435751e+00 0.0000000000000000e+00  0.0000000000000000e+00 0.0000000000000000e+00 0.0000000000000000e+00  -2.0107940635522635e-03 -1.7017449533518346e-03 0.0000000000000000e+00  -4.1875007761722456e-03 -3.2162400809554528e-03 0.0000000000000000e+00  -6.2649335542391714e-03 -4.4377256617540613e-03 0.0000000000000000e+00  -8.2413876787598064e-03 -5.4944707308300939e-03 0.0000000000000000e+00  -1.0155128995170850e-02 -6.4697184055548477e-03 0.0000000000000000e+00  -1.2030724148268276e-02 -7.4111593229786903e-03 0.0000000000000000e+00  -1.3882782203661436e-02 -8.3485191433971696e-03 0.0000000000000000e+00  -1.5720135598355896e-02 -9.3016716783489144e-03 0.0000000000000000e+00  -1.7548217099753568e-02 -1.0284539980725538e-02 0.0000000000000000e+00  -1.9370399568222233e-02 -1.1307194358791498e-02 0.0000000000000000e+00  -2.1188775297706797e-02 -1.2377080417689632e-02 0.0000000000000000e+00  -2.3004624455126528e-02 -1.3499784806606482e-02 0.0000000000000000e+00  -2.4818705354138174e-02 -1.4679537123044548e-02 0.0000000000000000e+00  -2.6631439165820184e-02 -1.5919552430129269e-02 0.0000000000000000e+00  -2.8443030068847682e-02 -1.7222272872852402e-02 0.0000000000000000e+00  -3.0253544768061309e-02 -1.8589542864230701e-02 0.0000000000000000e+00  -3.2062965787712769e-02 -2.0022739056753565e-02 0.0000000000000000e+00  -3.3871227463187388e-02 -2.1522868647381791e-02 0.0000000000000000e+00  -3.5678240302837540e-02 -2.3090644948450853e-02 0.0000000000000000e+00  -3.7483907408732177e-02 -2.4726546280033811e-02 0.0000000000000000e+00  -3.9288135405613385e-02 -2.6430862391453407e-02 0.0000000000000000e+00  -4.1090841534687138e-02 -2.8203731400700333e-02 0.0000000000000000e+00  -4.2891958051361277e-02 -3.0045169417203383e-02 0.0000000000000000e+00  -4.4691434721709639e-02 -3.1955094445351925e-02 0.0000000000000000e+00  -4.6489239979311869e-02 -3.3933345766607170e-02 0.0000000000000000e+00  -4.8285361143730041e-02 -3.5979699711967524e-02 0.0000000000000000e+00  -5.0079803989890169e-02 -3.8093882528357062e-02 0.0000000000000000e+00  -5.1872591878360221e-02 -4.0275580888654239e-02 0.0000000000000000e+00  -5.3663764599685686e-02 -4.2524450479745721e-02 0.0000000000000000e+00  -5.5453377044734596e-02 -4.4840123015359452e-02 0.0000000000000000e+00  -5.7241497782809722e-02 -4.7222211952995516e-02 0.0000000000000000e+00  -5.9028207606962313e-02 -4.9670317141755439e-02 0.0000000000000000e+00  -6.0813598089307953e-02 -5.2184028586506878e-02 0.0000000000000000e+00  -6.2597770176676559e-02 -5.4762929480901945e-02 0.0000000000000000e+00  -6.4380832847539871e-02 -5.7406598635314950e-02 0.0000000000000000e+00  -6.6162901844074515e-02 -6.0114612404321650e-02 0.0000000000000000e+00  -6.7944098487871446e-02 -6.2886546200820667e-02 0.0000000000000000e+00  -6.9724548583778329e-02 -6.5721975669481333e-02 0.0000000000000000e+00  -7.1504381413351276e-02 -6.8620477580266070e-02 0.0000000000000000e+00  -7.3283728817164870e-02 -7.1581630492843273e-02 0.0000000000000000e+00  -7.5062724363607641e-02 -7.4605015234404715e-02 0.0000000000000000e+00  -7.6841502600639364e-02 -7.7690215226437542e-02 0.0000000000000000e+00  -7.8620198386201434e-02 -8.0836816690144711e-02 0.0000000000000000e+00  -8.0398946292470339e-02 -8.4044408755271680e-02 0.0000000000000000e+00  -8.2177880078862842e-02 -8.7312583492931875e-02 0.0000000000000000e+00  -8.3957132228587861e-02 -9.0640935889506752e-02 0.0000000000000000e+00  -8.5736833543554949e-02 -9.4029063775725744e-02 0.0000000000000000e+00  -8.7517112792559651e-02 -9.7476567722525040e-02 0.0000000000000000e+00  -8.9298096407845681e-02 -1.0098305091316929e-01 0.0000000000000000e+00  -9.1079908225374095e-02 -1.0454811899934192e-01 0.0000000000000000e+00  -9.2862669264391559e-02 -1.0817137994741326e-01 0.0000000000000000e+00  -9.4646497542173108e-02 -1.1185244387984318e-01 0.0000000000000000e+00  -9.6431507920107254e-02 -1.1559092291562770e-01 0.0000000000000000e+00  -9.8217811977587111e-02 -1.1938643101282727e-01 0.0000000000000000e+00  -1.0000551791046200e-01 -1.2323858381549196e-01 0.0000000000000000e+00  -1.0179473045108813e-01 -1.2714699850670289e-01 0.0000000000000000e+00  -1.0358555080728826e-01 -1.3111129366895960e-01 0.0000000000000000e+00  -1.0537807661778882e-01 -1.3513108915274649e-01 0.0000000000000000e+00  -1.0717240192194565e-01 -1.3920600595378732e-01 0.0000000000000000e+00  -1.0896861714179684e-01 -1.4333566609924123e-01 0.0000000000000000e+00  -1.1076680907469126e-01 -1.4751969254288921e-01 0.0000000000000000e+00  -1.1256706089493537e-01 -1.5175770906920041e-01 0.0000000000000000e+00  -1.1436945216307912e-01 -1.5604934020604691e-01 0.0000000000000000e+00  -1.1617405884162374e-01 -1.6039421114574492e-01 0.0000000000000000e+00  -1.1798095331608156e-01 -1.6479194767403385e-01 0.0000000000000000e+00  -1.1979020442045173e-01 -1.6924217610656087e-01 0.0000000000000000e+00  -1.2160187746629487e-01 -1.7374452323241074e-01 0.0000000000000000e+00  -1.2341603427469838e-01 -1.7829861626420454e-01 0.0000000000000000e+00  -1.2523273321051934e-01 -1.8290408279428910e-01 0.0000000000000000e+00  -1.2705202921837841e-01 -1.8756055075654177e-01 0.0000000000000000e+00  -1.2887397385995375e-01 -1.9226764839332600e-01 0.0000000000000000e+00  -1.3069861535219124e-01 -1.9702500422715027e-01 0.0000000000000000e+00  -1.3252599860610667e-01 -2.0183224703660016e-01 0.0000000000000000e+00  -1.3435616526590793e-01 -2.0668900583613600e-01 0.0000000000000000e+00  -1.3618915374820972e-01 -2